# vtk DataFile Version 4.2
3D Slicer output. SPACE=LPS
ASCII
DATASET POLYDATA
POINTS 2052 double
6.6185283661 -5.8591294289 0.74020862579 8.4963436127 -5.927011013 1.6991872787 5.6796197891 -5.7806129456 1.6991872787 
3.8018045425 -5.094326973 0.74020862579 3.8018045425 -4.8795876503 -0.21876907349 6.6185283661 -5.8591294289 0.74020862579 
3.557346344 -4.1583390236 1.6991872787 3.8018045425 -5.094326973 0.74020862579 5.6796197891 -5.7806129456 1.6991872787 
5.6796197891 -5.7806129456 1.6991872787 3.8018045425 -5.094326973 0.74020862579 6.6185283661 -5.8591294289 0.74020862579 
3.8018045425 -4.8795876503 -0.21876907349 5.6796197891 -4.1583390236 -1.0464944839 6.6185283661 -5.8591294289 0.74020862579 
6.6185283661 -5.8591294289 0.74020862579 5.6796197891 -4.1583390236 -1.0464944839 8.4963436127 -5.4754943848 0.74020862579 
8.4963436127 -5.4754943848 0.74020862579 8.4963436127 -5.927011013 1.6991872787 6.6185283661 -5.8591294289 0.74020862579 
8.4963436127 -5.0914945602 3.7270622253 5.6796197891 -5.7806129456 1.6991872787 8.4963436127 -5.927011013 1.6991872787 
8.4963436127 -5.4754943848 0.74020862579 10.444241524 -5.0914945602 1.6991872787 8.4963436127 -5.927011013 1.6991872787 
8.4963436127 -5.927011013 1.6991872787 10.374159813 -5.2163510323 3.6171426773 8.4963436127 -5.0914945602 3.7270622253 
10.374159813 -5.2163510323 3.6171426773 8.4963436127 -5.927011013 1.6991872787 10.444241524 -5.0914945602 1.6991872787 
3.557346344 -4.1583390236 1.6991872787 5.6796197891 -5.7806129456 1.6991872787 5.6796197891 -4.1583390236 3.1818628311 
8.4963436127 -5.0914945602 3.7270622253 5.6796197891 -4.1583390236 3.1818628311 5.6796197891 -5.7806129456 1.6991872787 
8.4963436127 -4.1583390236 -0.54110431671 8.4963436127 -5.4754943848 0.74020862579 5.6796197891 -4.1583390236 -1.0464944839 
8.4963436127 -5.0914945602 3.7270622253 10.374159813 -5.2163510323 3.6171426773 12.251976013 -3.5965647697 4.5761203766 
10.444241524 -5.0914945602 1.6991872787 14.12979126 -2.8674492836 2.658164978 10.374159813 -5.2163510323 3.6171426773 
14.12979126 -2.8674492836 2.658164978 13.190883636 -3.6265511513 3.6171426773 10.374159813 -5.2163510323 3.6171426773 
13.190883636 -3.6265511513 3.6171426773 12.251976013 -3.5965647697 4.5761203766 10.374159813 -5.2163510323 3.6171426773 
16.007606506 -0.75417518616 1.6991872787 14.12979126 -2.8674492836 2.658164978 10.444241524 -5.0914945602 1.6991872787 
2.571893692 -3.2251834869 -1.1777467728 3.8018045425 -5.094326973 0.74020862579 1.1898293495 -2.2920284271 -0.21876907349 
3.8018045425 -5.094326973 0.74020862579 3.557346344 -4.1583390236 1.6991872787 1.1898293495 -2.2920284271 -0.21876907349 
3.8018045425 -4.8795876503 -0.21876907349 3.8018045425 -5.094326973 0.74020862579 2.571893692 -3.2251834869 -1.1777467728 
2.571893692 -3.2251834869 -1.1777467728 5.6796197891 -1.3588724136 -2.2306671143 5.6796197891 -4.1583390236 -1.0464944839 
5.6796197891 -4.1583390236 -1.0464944839 3.8018045425 -4.8795876503 -0.21876907349 2.571893692 -3.2251834869 -1.1777467728 
1.9239883423 -1.3588724136 1.7476129532 3.557346344 -4.1583390236 1.6991872787 5.6796197891 -4.1583390236 3.1818628311 
5.6796197891 -1.3588724136 -2.2306671143 8.4963436127 -2.2920284271 -1.5803050995 5.6796197891 -4.1583390236 -1.0464944839 
8.4963436127 -4.1583390236 -0.54110431671 5.6796197891 -4.1583390236 -1.0464944839 8.4963436127 -2.2920284271 -1.5803050995 
8.4963436127 -5.0914945602 3.7270622253 9.4352521896 -3.2251834869 4.8522033691 5.6796197891 -4.1583390236 3.1818628311 
9.4352521896 -3.2251834869 4.8522033691 8.4963436127 -5.0914945602 3.7270622253 12.251976013 -3.5965647697 4.5761203766 
8.4963436127 -4.1583390236 -0.54110431671 14.12979126 -1.3957529068 0.74020862579 8.4963436127 -5.4754943848 0.74020862579 
8.4963436127 -5.4754943848 0.74020862579 14.12979126 -1.3957529068 0.74020862579 10.444241524 -5.0914945602 1.6991872787 
14.12979126 -1.3957529068 0.74020862579 16.007606506 -0.75417518616 1.6991872787 10.444241524 -5.0914945602 1.6991872787 
2.8628964424 -0.42571640015 -2.0368013382 2.571893692 -3.2251834869 -1.1777467728 1.4311938286 -1.3588724136 -1.1777467728 
2.571893692 -3.2251834869 -1.1777467728 1.1898293495 -2.2920284271 -0.21876907349 1.4311938286 -1.3588724136 -1.1777467728 
1.1898293495 -2.2920284271 -0.21876907349 3.557346344 -4.1583390236 1.6991872787 1.0095953941 -1.3588724136 0.74020862579 
5.6796197891 -1.3588724136 -2.2306671143 2.571893692 -3.2251834869 -1.1777467728 2.8628964424 -0.42571640015 -2.0368013382 
7.5574359894 -2.2920284271 4.4224090576 1.9239883423 -1.3588724136 1.7476129532 5.6796197891 -4.1583390236 3.1818628311 
5.6796197891 -4.1583390236 3.1818628311 9.4352521896 -3.2251834869 4.8522033691 7.5574359894 -2.2920284271 4.4224090576 
8.4963436127 -4.1583390236 -0.54110431671 8.4963436127 -2.2920284271 -1.5803050995 13.190883636 0.50743865967 -1.0627994537 
14.12979126 -1.3957529068 0.74020862579 8.4963436127 -4.1583390236 -0.54110431671 13.190883636 0.50743865967 -1.0627994537 
12.251976013 -3.5965647697 4.5761203766 13.190883636 -0.42571640015 5.6643924713 9.4352521896 -3.2251834869 4.8522033691 
14.12979126 -1.3588724136 5.3931980133 13.190883636 -0.42571640015 5.6643924713 12.251976013 -3.5965647697 4.5761203766 
12.251976013 -3.5965647697 4.5761203766 13.190883636 -3.6265511513 3.6171426773 15.068698883 -1.9510326385 4.5761203766 
14.12979126 -1.3588724136 5.3931980133 12.251976013 -3.5965647697 4.5761203766 15.068698883 -1.9510326385 4.5761203766 
14.12979126 -2.8674492836 2.658164978 16.946516037 -0.69813919067 3.6171426773 13.190883636 -3.6265511513 3.6171426773 
15.068698883 -1.9510326385 4.5761203766 13.190883636 -3.6265511513 3.6171426773 16.946516037 -0.69813919067 3.6171426773 
1.4311938286 -1.3588724136 -1.1777467728 1.1898293495 -2.2920284271 -0.21876907349 0.25873708725 -0.42571640015 -0.21876907349 
1.1898293495 -2.2920284271 -0.21876907349 1.0095953941 -1.3588724136 0.74020862579 0.25873708725 -0.42571640015 -0.21876907349 
3.557346344 -4.1583390236 1.6991872787 1.9239883423 -1.3588724136 1.7476129532 1.0095953941 -1.3588724136 0.74020862579 
7.5574359894 -0.42571640015 -2.4216761589 8.4963436127 -2.2920284271 -1.5803050995 5.6796197891 -1.3588724136 -2.2306671143 
9.4352521896 -3.2251834869 4.8522033691 10.374159813 0.50743865967 5.2144727707 7.5574359894 -2.2920284271 4.4224090576 
12.251976013 2.373749733 -2.1544880867 13.190883636 0.50743865967 -1.0627994537 8.4963436127 -2.2920284271 -1.5803050995 
13.190883636 -0.42571640015 5.6643924713 10.374159813 0.50743865967 5.2144727707 9.4352521896 -3.2251834869 4.8522033691 
15.068698883 -1.9510326385 4.5761203766 16.007606506 -0.42571640015 5.067109108 14.12979126 -1.3588724136 5.3931980133 
1.9239883423 0.50743865967 -1.7508687973 1.4311938286 -1.3588724136 -1.1777467728 0.25873708725 -0.42571640015 -0.21876907349 
1.0095953941 -1.3588724136 0.74020862579 0.75777244568 0.50743865967 0.74020862579 0.25873708725 -0.42571640015 -0.21876907349 
1.9239883423 0.50743865967 -1.7508687973 2.8628964424 -0.42571640015 -2.0368013382 1.4311938286 -1.3588724136 -1.1777467728 
1.0095953941 -1.3588724136 0.74020862579 1.9239883423 -1.3588724136 1.7476129532 0.75777244568 0.50743865967 0.74020862579 
5.6796197891 -1.3588724136 -2.2306671143 2.8628964424 -0.42571640015 -2.0368013382 5.6796197891 1.4405937195 -2.77759552 
7.5574359894 -2.2920284271 4.4224090576 6.6185283661 0.50743865967 4.0231370926 1.9239883423 -1.3588724136 1.7476129532 
6.6185283661 0.50743865967 4.0231370926 1.9239883423 0.50743865967 1.8867740631 1.9239883423 -1.3588724136 1.7476129532 
7.5574359894 -2.2920284271 4.4224090576 10.374159813 0.50743865967 5.2144727707 6.6185283661 0.50743865967 4.0231370926 
16.007606506 -0.75417518616 1.6991872787 17.950037003 0.50743865967 2.658164978 14.12979126 -2.8674492836 2.658164978 
17.950037003 0.50743865967 2.658164978 16.946516037 -0.69813919067 3.6171426773 14.12979126 -2.8674492836 2.658164978 
1.9239883423 0.50743865967 1.8867740631 0.75777244568 0.50743865967 0.74020862579 1.9239883423 -1.3588724136 1.7476129532 
7.5574359894 -0.42571640015 -2.4216761589 5.6796197891 -1.3588724136 -2.2306671143 5.6796197891 1.4405937195 -2.77759552 
10.374159813 2.373749733 -2.6655726433 8.4963436127 -2.2920284271 -1.5803050995 7.5574359894 -0.42571640015 -2.4216761589 
12.251976013 2.373749733 -2.1544880867 8.4963436127 -2.2920284271 -1.5803050995 10.374159813 2.373749733 -2.6655726433 
13.190883636 0.50743865967 -1.0627994537 16.946516037 2.373749733 -0.077020645142 14.12979126 -1.3957529068 0.74020862579 
16.946516037 2.373749733 -0.077020645142 16.007606506 -0.75417518616 1.6991872787 14.12979126 -1.3957529068 0.74020862579 
16.007606506 -0.75417518616 1.6991872787 16.946516037 2.373749733 -0.077020645142 17.950037003 0.50743865967 2.658164978 
17.950037003 0.50743865967 2.658164978 18.709512711 1.4405937195 3.6171426773 16.946516037 -0.69813919067 3.6171426773 
18.709512711 1.4405937195 3.6171426773 17.929811478 1.4405937195 4.5761203766 15.068698883 -1.9510326385 4.5761203766 
18.709512711 1.4405937195 3.6171426773 15.068698883 -1.9510326385 4.5761203766 16.946516037 -0.69813919067 3.6171426773 
15.068698883 -1.9510326385 4.5761203766 17.929811478 1.4405937195 4.5761203766 16.007606506 -0.42571640015 5.067109108 
1.628592968 2.373749733 -1.1777467728 1.9239883423 0.50743865967 -1.7508687973 0.25873708725 -0.42571640015 -0.21876907349 
4.7407121658 3.3069057465 -2.5839710236 5.6796197891 1.4405937195 -2.77759552 2.8628964424 -0.42571640015 -2.0368013382 
1.9239883423 0.50743865967 -1.7508687973 4.7407121658 3.3069057465 -2.5839710236 2.8628964424 -0.42571640015 -2.0368013382 
11.313067436 3.3069057465 4.6801452637 6.6185283661 0.50743865967 4.0231370926 10.374159813 0.50743865967 5.2144727707 
13.190883636 -0.42571640015 5.6643924713 12.251976013 2.373749733 5.1739597321 10.374159813 0.50743865967 5.2144727707 
13.190883636 0.50743865967 -1.0627994537 12.251976013 2.373749733 -2.1544880867 16.946516037 2.373749733 -0.077020645142 
[...]
CELL_DATA 684
FIELD FieldData 1
GroupIds 1 684 float
0 0 0 0 0 0 0 0 0 
0 0 0 0 0 0 0 0 0 
0 0 0 0 0 0 0 0 0 
0 0 0 0 0 0 0 0 0 
0 0 0 0 0 0 0 0 0 
0 0 0 0 0 0 0 0 0 
0 0 0 0 0 0 0 0 0 
0 0 0 0 0 0 0 0 0 
0 0 0 0 0 0 0 0 0 
0 0 0 0 0 0 0 0 0 
0 0 0 0 0 0 0 0 0 
0 0 0 0 0 0 0 0 0 
0 0 0 0 0 0 0 0 0 
0 0 0 0 0 0 0 0 0 
0 0 0 0 0 0 0 0 0 
0 0 0 0 0 0 0 0 0 
0 0 0 0 0 0 0 0 0 
0 0 0 0 0 0 0 0 0 
0 0 0 0 0 0 0 0 0 
0 0 0 0 0 0 0 0 0 
0 0 0 0 0 0 0 0 0 
0 0 0 0 0 0 0 0 0 
0 0 0 0 0 0 0 0 0 
0 0 0 0 0 0 0 0 0 
0 0 0 0 0 0 0 0 0 
0 0 0 0 0 0 0 0 0 
0 0 0 0 0 0 0 0 0 
0 0 0 0 0 0 0 0 0 
0 0 0 0 0 0 0 0 0 
0 0 0 0 0 0 0 0 0 
0 0 0 0 0 0 0 0 0 
0 0 0 0 0 0 0 0 0 
0 0 0 0 0 0 0 0 0 
0 0 0 0 0 0 0 0 0 
0 0 0 0 0 0 0 0 0 
0 0 0 0 0 0 0 0 0 
0 0 0 0 0 0 0 0 0 
0 0 0 0 0 0 0 0 0 
0 0 0 0 0 0 0 0 0 
0 0 0 0 0 0 0 0 0 
0 0 0 0 0 0 0 0 0 
0 0 0 0 0 0 0 0 0 
0 0 0 0 0 0 0 0 0 
0 0 0 0 0 0 0 0 0 
0 0 0 0 0 0 0 0 0 
0 0 0 0 0 0 0 0 0 
0 0 0 0 0 0 0 0 0 
0 0 0 0 0 0 0 0 0 
0 0 0 0 0 0 0 0 0 
0 0 0 0 0 0 0 0 0 
0 0 0 0 0 0 0 0 0 
0 0 0 0 0 0 0 0 0 
0 0 0 0 0 0 0 0 0 
0 0 0 0 0 0 0 0 0 
0 0 0 0 0 0 0 0 0 
0 0 0 0 0 0 0 0 0 
0 0 0 0 0 0 0 0 0 
0 0 0 0 0 0 0 0 0 
0 0 0 0 0 0 0 0 0 
0 0 0 0 0 0 0 0 0 
0 0 0 0 0 0 0 0 0 
0 0 0 0 0 0 0 0 0 
0 0 0 0 0 0 0 0 0 
0 0 0 0 0 0 0 0 0 
0 0 0 0 0 0 0 0 0 
0 0 0 0 0 0 0 0 0 
0 0 0 0 0 0 0 0 0 
0 0 0 0 0 0 0 0 0 
0 0 0 0 0 0 0 0 0 
0 0 0 0 0 0 0 0 0 
0 0 0 0 0 0 0 0 0 
0 0 0 0 0 0 0 0 0 
0 0 0 0 0 0 0 0 0 
0 0 0 0 0 0 0 0 0 
0 0 0 0 0 0 0 0 0 
0 0 0 0 0 0 0 0 0 

POINT_DATA 2052
NORMALS Normals float
-0.0518797 -0.998174 0.0309317 -0.0518797 -0.998174 0.0309317 -0.0518797 -0.998174 0.0309317 
-0.256122 -0.943284 -0.211225 -0.256122 -0.943284 -0.211225 -0.256122 -0.943284 -0.211225 
-0.516002 -0.675039 0.527318 -0.516002 -0.675039 0.527318 -0.516002 -0.675039 0.527318 
-0.258 -0.9502 -0.174803 -0.258 -0.9502 -0.174803 -0.258 -0.9502 -0.174803 
-0.0210351 -0.729643 -0.683505 -0.0210351 -0.729643 -0.683505 -0.0210351 -0.729643 -0.683505 
0.138885 -0.679816 -0.720112 0.138885 -0.679816 -0.720112 0.138885 -0.679816 -0.720112 
0.181757 -0.889664 -0.418881 0.181757 -0.889664 -0.418881 0.181757 -0.889664 -0.418881 
-0.0480001 -0.923531 0.380509 -0.0480001 -0.923531 0.380509 -0.0480001 -0.923531 0.380509 
0.361783 -0.84345 -0.397122 0.361783 -0.84345 -0.397122 0.361783 -0.84345 -0.397122 
-0.0391475 -0.923888 0.380656 -0.0391475 -0.923888 0.380656 -0.0391475 -0.923888 0.380656 
0.393793 -0.918078 -0.0453766 0.393793 -0.918078 -0.0453766 0.393793 -0.918078 -0.0453766 
-0.458337 -0.5996 0.656054 -0.458337 -0.5996 0.656054 -0.458337 -0.5996 0.656054 
-0.344014 -0.633457 0.693099 -0.344014 -0.633457 0.693099 -0.344014 -0.633457 0.693099 
0.12756 -0.691591 -0.710937 0.12756 -0.691591 -0.710937 0.12756 -0.691591 -0.710937 
0.0151752 -0.52236 0.85259 0.0151752 -0.52236 0.85259 0.0151752 -0.52236 0.85259 
0.523234 -0.851415 -0.0363072 0.523234 -0.851415 -0.0363072 0.523234 -0.851415 -0.0363072 
0.481217 -0.852595 -0.203746 0.481217 -0.852595 -0.203746 0.481217 -0.852595 -0.203746 
0.438141 -0.776275 0.453244 0.438141 -0.776275 0.453244 0.438141 -0.776275 0.453244 
0.542369 -0.695683 -0.471021 0.542369 -0.695683 -0.471021 0.542369 -0.695683 -0.471021 
-0.65883 -0.704438 -0.264027 -0.65883 -0.704438 -0.264027 -0.65883 -0.704438 -0.264027 
-0.740273 -0.565644 0.363377 -0.740273 -0.565644 0.363377 -0.740273 -0.565644 0.363377 
-0.752405 -0.642782 -0.143935 -0.752405 -0.642782 -0.143935 -0.752405 -0.642782 -0.143935 
-0.0778445 -0.388397 -0.918198 -0.0778445 -0.388397 -0.918198 -0.0778445 -0.388397 -0.918198 
-0.137329 -0.571179 -0.809256 -0.137329 -0.571179 -0.809256 -0.137329 -0.571179 -0.809256 
-0.540835 -0.328943 0.774141 -0.540835 -0.328943 0.774141 -0.540835 -0.328943 0.774141 
0.0832961 -0.388226 -0.917792 0.0832961 -0.388226 -0.917792 0.0832961 -0.388226 -0.917792 
0.15487 -0.480618 -0.863146 0.15487 -0.480618 -0.863146 0.15487 -0.480618 -0.863146 
-0.295501 -0.379812 0.876597 -0.295501 -0.379812 0.876597 -0.295501 -0.379812 0.876597 
0.0148214 -0.521703 0.852999 0.0148214 -0.521703 0.852999 0.0148214 -0.521703 0.852999 
0.450763 -0.622429 -0.63984 0.450763 -0.622429 -0.63984 0.450763 -0.622429 -0.63984 
0.443152 -0.61192 -0.655111 0.443152 -0.61192 -0.655111 0.443152 -0.61192 -0.655111 
0.509299 -0.653265 -0.560231 0.509299 -0.653265 -0.560231 0.509299 -0.653265 -0.560231 
-0.383343 -0.234302 -0.893393 -0.383343 -0.234302 -0.893393 -0.383343 -0.234302 -0.893393 
-0.69171 -0.422777 -0.585489 -0.69171 -0.422777 -0.585489 -0.69171 -0.422777 -0.585489 
-0.743724 -0.54355 0.389136 -0.743724 -0.54355 0.389136 -0.743724 -0.54355 0.389136 
-0.156355 -0.274864 -0.948685 -0.156355 -0.274864 -0.948685 -0.156355 -0.274864 -0.948685 
-0.443651 -0.141817 0.884908 -0.443651 -0.141817 0.884908 -0.443651 -0.141817 0.884908 
-0.337121 -0.261894 0.904301 -0.337121 -0.261894 0.904301 -0.337121 -0.261894 0.904301 
0.360442 -0.453787 -0.81496 0.360442 -0.453787 -0.81496 0.360442 -0.453787 -0.81496 
0.419697 -0.506502 -0.7532 0.419697 -0.506502 -0.7532 0.419697 -0.506502 -0.7532 
0.0477514 -0.336874 0.940338 0.0477514 -0.336874 0.940338 0.0477514 -0.336874 0.940338 
-0.0383074 -0.31422 0.948577 -0.0383074 -0.31422 0.948577 -0.0383074 -0.31422 0.948577 
0.447379 -0.765796 0.461962 0.447379 -0.765796 0.461962 0.447379 -0.765796 0.461962 
0.32207 -0.5513 0.769636 0.32207 -0.5513 0.769636 0.32207 -0.5513 0.769636 
0.614752 -0.788408 -0.022197 0.614752 -0.788408 -0.022197 0.614752 -0.788408 -0.022197 
0.605825 -0.776959 0.171205 0.605825 -0.776959 0.171205 0.605825 -0.776959 0.171205 
-0.746958 -0.372653 -0.55062 -0.746958 -0.372653 -0.55062 -0.746958 -0.372653 -0.55062 
-0.864704 -0.431396 0.257264 -0.864704 -0.431396 0.257264 -0.864704 -0.431396 0.257264 
-0.676842 -0.405533 0.614351 -0.676842 -0.405533 0.614351 -0.676842 -0.405533 0.614351 
0.0904279 -0.371139 -0.924164 0.0904279 -0.371139 -0.924164 0.0904279 -0.371139 -0.924164 
-0.239032 -0.034057 0.970414 -0.239032 -0.034057 0.970414 -0.239032 -0.034057 0.970414 
0.310832 -0.358525 -0.880252 0.310832 -0.358525 -0.880252 0.310832 -0.358525 -0.880252 
-0.174177 -0.0516272 0.98336 -0.174177 -0.0516272 0.98336 -0.174177 -0.0516272 0.98336 
0.378485 -0.486457 0.787469 0.378485 -0.486457 0.787469 0.378485 -0.486457 0.787469 
-0.658663 -0.0564946 -0.750315 -0.658663 -0.0564946 -0.750315 -0.658663 -0.0564946 -0.750315 
-0.832497 -0.11233 0.542522 -0.832497 -0.11233 0.542522 -0.832497 -0.11233 0.542522 
-0.429344 -0.159611 -0.888925 -0.429344 -0.159611 -0.888925 -0.429344 -0.159611 -0.888925 
-0.736794 -0.0994163 0.668768 -0.736794 -0.0994163 0.668768 -0.736794 -0.0994163 0.668768 
-0.129961 -0.190118 -0.973122 -0.129961 -0.190118 -0.973122 -0.129961 -0.190118 -0.973122 
-0.431005 -0.0158768 0.90221 -0.431005 -0.0158768 0.90221 -0.431005 -0.0158768 0.90221 
-0.413251 -0.067712 0.908096 -0.413251 -0.067712 0.908096 -0.413251 -0.067712 0.908096 
-0.302185 0.0345181 0.952624 -0.302185 0.0345181 0.952624 -0.302185 0.0345181 0.952624 
0.623905 -0.706237 -0.334621 0.623905 -0.706237 -0.334621 0.623905 -0.706237 -0.334621 
0.642405 -0.727178 -0.241927 0.642405 -0.727178 -0.241927 0.642405 -0.727178 -0.241927 
-0.700085 -0.0530963 0.712083 -0.700085 -0.0530963 0.712083 -0.700085 -0.0530963 0.712083 
-0.00454674 -0.191742 -0.981435 -0.00454674 -0.191742 -0.981435 -0.00454674 -0.191742 -0.981435 
0.223101 -0.305135 -0.925807 0.223101 -0.305135 -0.925807 0.223101 -0.305135 -0.925807 
0.249378 -0.31349 -0.916261 0.249378 -0.31349 -0.916261 0.249378 -0.31349 -0.916261 
0.44161 -0.492569 -0.749904 0.44161 -0.492569 -0.749904 0.44161 -0.492569 -0.749904 
0.522064 -0.534248 -0.664852 0.522064 -0.534248 -0.664852 0.522064 -0.534248 -0.664852 
0.624958 -0.518827 -0.583306 0.624958 -0.518827 -0.583306 0.624958 -0.518827 -0.583306 
0.771608 -0.63605 0.0078378 0.771608 -0.63605 0.0078378 0.771608 -0.63605 0.0078378 
0.649202 -0.547655 0.527837 0.649202 -0.547655 0.527837 0.649202 -0.547655 0.527837 
0.638098 -0.525996 0.562281 0.638098 -0.525996 0.562281 0.638098 -0.525996 0.562281 
0.672145 -0.567009 0.476153 0.672145 -0.567009 0.476153 0.672145 -0.567009 0.476153 
-0.704367 0.104138 -0.702155 -0.704367 0.104138 -0.702155 -0.704367 0.104138 -0.702155 
-0.241392 -0.0207837 -0.970205 -0.241392 -0.0207837 -0.970205 -0.241392 -0.0207837 -0.970205 
-0.28748 0.00422448 -0.957777 -0.28748 0.00422448 -0.957777 -0.28748 0.00422448 -0.957777 
-0.290913 0.272611 0.917089 -0.290913 0.272611 0.917089 -0.290913 0.272611 0.917089 
-0.112628 0.134693 0.984466 -0.112628 0.134693 0.984466 -0.112628 0.134693 0.984466 
0.384139 -0.314511 -0.868055 0.384139 -0.314511 -0.868055 0.384139 -0.314511 -0.868055 
-0.0631471 0.15163 0.986418 -0.0631471 0.15163 0.986418 -0.0631471 0.15163 0.986418 
0.232515 -0.048358 0.97139 0.232515 -0.048358 0.97139 0.232515 -0.048358 0.97139 
0.134212 -0.0234296 0.990676 0.134212 -0.0234296 0.990676 0.134212 -0.0234296 0.990676 
0.227425 -0.119955 0.966379 0.227425 -0.119955 0.966379 0.227425 -0.119955 0.966379 
0.442547 -0.227612 0.867378 0.442547 -0.227612 0.867378 0.442547 -0.227612 0.867378 
-0.932022 0.315886 0.177628 -0.932022 0.315886 0.177628 -0.932022 0.315886 0.177628 
-0.874492 0.296388 -0.383951 -0.874492 0.296388 -0.383951 -0.874492 0.296388 -0.383951 
-0.947189 0.298942 0.116048 -0.947189 0.298942 0.116048 -0.947189 0.298942 0.116048 
-0.684517 0.21604 0.696249 -0.684517 0.21604 0.696249 -0.684517 0.21604 0.696249 
-0.577526 0.258797 0.774266 -0.577526 0.258797 0.774266 -0.577526 0.258797 0.774266 
-0.451942 0.195729 -0.87031 -0.451942 0.195729 -0.87031 -0.451942 0.195729 -0.87031 
-0.404911 0.210615 0.889769 -0.404911 0.210615 0.889769 -0.404911 0.210615 0.889769 
-0.236248 0.25804 0.936804 -0.236248 0.25804 0.936804 -0.236248 0.25804 0.936804 
0.391241 -0.255519 -0.884104 0.391241 -0.255519 -0.884104 0.391241 -0.255519 -0.884104 
0.53566 -0.593016 -0.601165 0.53566 -0.593016 -0.601165 0.53566 -0.593016 -0.601165 
0.793492 -0.607434 -0.0373398 0.793492 -0.607434 -0.0373398 0.793492 -0.607434 -0.0373398 
-0.708612 0.465433 -0.530321 -0.708612 0.465433 -0.530321 -0.708612 0.465433 -0.530321 
-0.371201 0.257776 0.892055 -0.371201 0.257776 0.892055 -0.371201 0.257776 0.892055 
0.0729879 -0.115482 -0.990624 0.0729879 -0.115482 -0.990624 0.0729879 -0.115482 -0.990624 
-0.297019 0.284136 0.911617 -0.297019 0.284136 0.911617 -0.297019 0.284136 0.911617 
0.0290625 -0.115742 -0.992854 0.0290625 -0.115742 -0.992854 0.0290625 -0.115742 -0.992854 
0.258242 -0.181753 -0.948829 0.258242 -0.181753 -0.948829 0.258242 -0.181753 -0.948829 
-0.0611188 0.291113 0.954734 -0.0611188 0.291113 0.954734 -0.0611188 0.291113 0.954734 
0.175165 0.0613666 0.982625 0.175165 0.0613666 0.982625 0.175165 0.0613666 0.982625 
0.402434 -0.0457075 0.914307 0.402434 -0.0457075 0.914307 0.402434 -0.0457075 0.914307 
0.454046 -0.0434996 0.889916 0.454046 -0.0434996 0.889916 0.454046 -0.0434996 0.889916 
0.653536 -0.586787 -0.478093 0.653536 -0.586787 -0.478093 0.653536 -0.586787 -0.478093 
0.78415 -0.600282 -0.157383 0.78415 -0.600282 -0.157383 0.78415 -0.600282 -0.157383 
0.829701 -0.435956 0.348623 0.829701 -0.435956 0.348623 0.829701 -0.435956 0.348623 
0.720013 -0.372663 0.58541 0.720013 -0.372663 0.58541 0.720013 -0.372663 0.58541 
-0.528833 0.466557 0.708985 -0.528833 0.466557 0.708985 -0.528833 0.466557 0.708985 
-0.179172 0.0119225 -0.983746 -0.179172 0.0119225 -0.983746 -0.179172 0.0119225 -0.983746 
0.0602291 -0.0846363 -0.99459 0.0602291 -0.0846363 -0.99459 0.0602291 -0.0846363 -0.99459 
0.301994 -0.156942 -0.940303 0.301994 -0.156942 -0.940303 0.301994 -0.156942 -0.940303 
-0.113821 0.372807 0.920902 -0.113821 0.372807 0.920902 -0.113821 0.372807 0.920902 
0.304132 -0.377806 -0.874509 0.304132 -0.377806 -0.874509 0.304132 -0.377806 -0.874509 
0.080934 0.201438 0.976152 0.080934 0.201438 0.976152 0.080934 0.201438 0.976152 
0.338624 -0.381519 -0.860103 0.338624 -0.381519 -0.860103 0.338624 -0.381519 -0.860103 
-0.756665 0.622332 -0.200401 -0.756665 0.622332 -0.200401 -0.756665 0.622332 -0.200401 
-0.746736 0.658799 0.0914891 -0.746736 0.658799 0.0914891 -0.746736 0.658799 0.0914891 
-0.76248 0.627114 0.159222 -0.76248 0.627114 0.159222 -0.76248 0.627114 0.159222 
-0.401022 0.503576 0.76524 -0.401022 0.503576 0.76524 -0.401022 0.503576 0.76524 
-0.46676 0.306579 -0.829545 -0.46676 0.306579 -0.829545 -0.46676 0.306579 -0.829545 
-0.410796 0.50748 0.757437 -0.410796 0.50748 0.757437 -0.410796 0.50748 0.757437 
-0.274281 0.165019 -0.947385 -0.274281 0.165019 -0.947385 -0.274281 0.165019 -0.947385 
-0.239254 0.479486 0.844305 -0.239254 0.479486 0.844305 -0.239254 0.479486 0.844305 
0.305781 0.00410791 -0.952093 0.305781 0.00410791 -0.952093 0.305781 0.00410791 -0.952093 
-0.157171 0.355117 0.921515 -0.157171 0.355117 0.921515 -0.157171 0.355117 0.921515 
-0.131994 0.42683 0.894647 -0.131994 0.42683 0.894647 -0.131994 0.42683 0.894647 
0.874499 -0.484295 0.0266381 0.874499 -0.484295 0.0266381 0.874499 -0.484295 0.0266381 
0.806577 -0.44668 0.387183 0.806577 -0.44668 0.387183 0.806577 -0.44668 0.387183 
-0.552715 0.69406 0.461288 -0.552715 0.69406 0.461288 -0.552715 0.69406 0.461288 
-0.421984 0.325488 -0.84616 -0.421984 0.325488 -0.84616 -0.421984 0.325488 -0.84616 
0.0319161 0.171513 -0.984665 0.0319161 0.171513 -0.984665 0.0319161 0.171513 -0.984665 
-0.258747 0.588652 0.765858 -0.258747 0.588652 0.765858 -0.258747 0.588652 0.765858 
0.0849907 0.0144661 -0.996277 0.0849907 0.0144661 -0.996277 0.0849907 0.0144661 -0.996277 
-0.253939 0.576775 0.776431 -0.253939 0.576775 0.776431 -0.253939 0.576775 0.776431 
0.228613 0.0874779 -0.969579 0.228613 0.0874779 -0.969579 0.228613 0.0874779 -0.969579 
0.0885361 -0.111123 -0.989855 0.0885361 -0.111123 -0.989855 0.0885361 -0.111123 -0.989855 
0.23529 -0.219935 -0.946714 0.23529 -0.219935 -0.946714 0.23529 -0.219935 -0.946714 
0.488414 -0.443989 -0.751216 0.488414 -0.443989 -0.751216 0.488414 -0.443989 -0.751216 
0.435588 -0.447526 -0.781015 0.435588 -0.447526 -0.781015 0.435588 -0.447526 -0.781015 
0.390894 -0.00304683 0.92043 0.390894 -0.00304683 0.92043 0.390894 -0.00304683 0.92043 
0.685973 -0.00240859 0.727623 0.685973 -0.00240859 0.727623 0.685973 -0.00240859 0.727623 
0.856865 -0.508078 0.0874066 0.856865 -0.508078 0.0874066 0.856865 -0.508078 0.0874066 
-0.437878 0.866872 -0.23832 -0.437878 0.866872 -0.23832 -0.437878 0.866872 -0.23832 
-0.502276 0.856443 -0.119266 -0.502276 0.856443 -0.119266 -0.502276 0.856443 -0.119266 
-0.470342 0.801992 0.368222 -0.470342 0.801992 0.368222 -0.470342 0.801992 0.368222 
-0.430899 0.260328 -0.864035 -0.430899 0.260328 -0.864035 -0.430899 0.260328 -0.864035 
-0.209016 0.775089 0.596279 -0.209016 0.775089 0.596279 -0.209016 0.775089 0.596279 
-0.221903 0.822877 0.5231 -0.221903 0.822877 0.5231 -0.221903 0.822877 0.5231 
0.0254522 0.618665 -0.785242 0.0254522 0.618665 -0.785242 0.0254522 0.618665 -0.785242 
0.215337 0.345778 -0.913273 0.215337 0.345778 -0.913273 0.215337 0.345778 -0.913273 
0.718267 -0.513734 -0.469223 0.718267 -0.513734 -0.469223 0.718267 -0.513734 -0.469223 
0.686329 -0.490891 -0.536636 0.686329 -0.490891 -0.536636 0.686329 -0.490891 -0.536636 
0.829238 -0.491696 -0.265706 0.829238 -0.491696 -0.265706 0.829238 -0.491696 -0.265706 
-0.26342 0.952103 -0.155272 -0.26342 0.952103 -0.155272 -0.26342 0.952103 -0.155272 
-0.11122 0.981791 0.154 -0.11122 0.981791 0.154 -0.11122 0.981791 0.154 
0.0559882 0.636823 -0.768974 0.0559882 0.636823 -0.768974 0.0559882 0.636823 -0.768974 
-0.138961 0.950886 -0.276598 -0.138961 0.950886 -0.276598 -0.138961 0.950886 -0.276598 
0.00244022 0.682628 -0.730762 0.00244022 0.682628 -0.730762 0.00244022 0.682628 -0.730762 
-0.262091 0.917631 0.298766 -0.262091 0.917631 0.298766 -0.262091 0.917631 0.298766 
-0.0739493 0.592054 -0.802498 -0.0739493 0.592054 -0.802498 -0.0739493 0.592054 -0.802498 
-0.311211 0.885852 0.344114 -0.311211 0.885852 0.344114 -0.311211 0.885852 0.344114 
-0.337701 0.673639 0.657396 -0.337701 0.673639 0.657396 -0.337701 0.673639 0.657396 
0.430511 0.535847 -0.726312 0.430511 0.535847 -0.726312 0.430511 0.535847 -0.726312 
-0.283031 0.553295 0.783427 -0.283031 0.553295 0.783427 -0.283031 0.553295 0.783427 
0.164957 0.282159 0.94508 0.164957 0.282159 0.94508 0.164957 0.282159 0.94508 
0.890534 -0.203042 0.40709 0.890534 -0.203042 0.40709 0.890534 -0.203042 0.40709 
0.605061 -0.137954 0.784136 0.605061 -0.137954 0.784136 0.605061 -0.137954 0.784136 
-0.136336 0.932927 -0.333255 -0.136336 0.932927 -0.333255 -0.136336 0.932927 -0.333255 
-0.115245 0.922673 -0.367959 -0.115245 0.922673 -0.367959 -0.115245 0.922673 -0.367959 
-0.328889 0.936172 0.124157 -0.328889 0.936172 0.124157 -0.328889 0.936172 0.124157 
-0.350351 0.26449 -0.898498 -0.350351 0.26449 -0.898498 -0.350351 0.26449 -0.898498 
-0.614596 0.681327 0.397573 -0.614596 0.681327 0.397573 -0.614596 0.681327 0.397573 
0.113018 -0.161025 -0.980458 0.113018 -0.161025 -0.980458 0.113018 -0.161025 -0.980458 
0.158093 -0.260791 -0.952363 0.158093 -0.260791 -0.952363 0.158093 -0.260791 -0.952363 
0.118616 0.284058 0.951442 0.118616 0.284058 0.951442 0.118616 0.284058 0.951442 
0.540955 -0.354495 -0.762693 0.540955 -0.354495 -0.762693 0.540955 -0.354495 -0.762693 
0.72779 -0.47693 -0.492808 0.72779 -0.47693 -0.492808 0.72779 -0.47693 -0.492808 
-0.715354 0.649053 -0.25884 -0.715354 0.649053 -0.25884 -0.715354 0.649053 -0.25884 
-0.0888755 0.987397 0.130951 -0.0888755 0.987397 0.130951 -0.0888755 0.987397 0.130951 
-0.682312 0.619074 0.388841 -0.682312 0.619074 0.388841 -0.682312 0.619074 0.388841 
-0.479116 0.569516 -0.667907 -0.479116 0.569516 -0.667907 -0.479116 0.569516 -0.667907 
-0.501954 0.556455 0.662118 -0.501954 0.556455 0.662118 -0.501954 0.556455 0.662118 
-0.272106 0.228681 -0.934699 -0.272106 0.228681 -0.934699 -0.272106 0.228681 -0.934699 
-0.2573 0.452263 0.853964 -0.2573 0.452263 0.853964 -0.2573 0.452263 0.853964 
0.00257231 -0.162063 -0.986777 0.00257231 -0.162063 -0.986777 0.00257231 -0.162063 -0.986777 
0.22447 -0.270274 -0.936251 0.22447 -0.270274 -0.936251 0.22447 -0.270274 -0.936251 
0.050522 0.184608 0.981513 0.050522 0.184608 0.981513 0.050522 0.184608 0.981513 
0.542472 0.00707074 0.840044 0.542472 0.00707074 0.840044 0.542472 0.00707074 0.840044 
0.945235 -0.319207 -0.0681007 0.945235 -0.319207 -0.0681007 0.945235 -0.319207 -0.0681007 
0.835658 -0.282203 0.471209 0.835658 -0.282203 0.471209 0.835658 -0.282203 0.471209 
-0.941394 0.225474 -0.250878 -0.941394 0.225474 -0.250878 -0.941394 0.225474 -0.250878 
-0.701778 0.61415 0.361008 -0.701778 0.61415 0.361008 -0.701778 0.61415 0.361008 
-0.279406 0.0276103 -0.959776 -0.279406 0.0276103 -0.959776 -0.279406 0.0276103 -0.959776 
-0.767338 0.266588 -0.583201 -0.767338 0.266588 -0.583201 -0.767338 0.266588 -0.583201 
-0.385848 0.337414 0.858646 -0.385848 0.337414 0.858646 -0.385848 0.337414 0.858646 
0.531565 -0.404317 -0.744289 0.531565 -0.404317 -0.744289 0.531565 -0.404317 -0.744289 
0.60759 -0.0683865 0.791301 0.60759 -0.0683865 0.791301 0.60759 -0.0683865 0.791301 
0.0395754 0.184699 0.981998 0.0395754 0.184699 0.981998 0.0395754 0.184699 0.981998 
0.85533 -0.366325 -0.366357 0.85533 -0.366325 -0.366357 0.85533 -0.366325 -0.366357 
0.906604 -0.388285 0.165241 0.906604 -0.388285 0.165241 0.906604 -0.388285 0.165241 
-0.403896 0.0146118 -0.914688 -0.403896 0.0146118 -0.914688 -0.403896 0.0146118 -0.914688 
-0.192225 0.319407 0.927916 -0.192225 0.319407 0.927916 -0.192225 0.319407 0.927916 
0.266755 -0.227832 -0.936448 0.266755 -0.227832 -0.936448 0.266755 -0.227832 -0.936448 
0.397114 -0.244427 -0.884622 0.397114 -0.244427 -0.884622 0.397114 -0.244427 -0.884622 
0.89068 -0.452382 -0.0451729 0.89068 -0.452382 -0.0451729 0.89068 -0.452382 -0.0451729 
-0.543909 0.524585 0.654961 -0.543909 0.524585 0.654961 -0.543909 0.524585 0.654961 
-0.0608568 -0.0361262 -0.997493 -0.0608568 -0.0361262 -0.997493 -0.0608568 -0.0361262 -0.997493 
-0.0378234 -0.0516118 -0.997951 -0.0378234 -0.0516118 -0.997951 -0.0378234 -0.0516118 -0.997951 