# vtk DataFile Version 4.2
3D Slicer output. SPACE=LPS
ASCII
DATASET POLYDATA
POINTS 2196 double
4.5585637093 -5.0433077812 -0.50158214569 6.3951153755 -4.1103005409 -1.3675909042 6.3951153755 -5.8150577545 0.44525337219 
4.5585637093 -5.0433077812 -0.50158214569 6.3951153755 -5.8150577545 0.44525337219 3.7338881493 -5.0338215828 0.44525337219 
6.3951153755 -5.8150577545 0.44525337219 6.3951153755 -5.8832435608 1.3920888901 3.7338881493 -5.0338215828 0.44525337219 
3.7338881493 -5.0338215828 0.44525337219 6.3951153755 -5.8832435608 1.3920888901 6.3951153755 -5.0338215828 2.5376520157 
8.2316665649 -5.0338215828 -0.076549530029 8.2316665649 -5.8059167862 1.3920888901 6.3951153755 -5.8150577545 0.44525337219 
6.3951153755 -5.8150577545 0.44525337219 8.2316665649 -5.8059167862 1.3920888901 6.3951153755 -5.8832435608 1.3920888901 
8.2316665649 -5.8059167862 1.3920888901 8.2316665649 -5.0338215828 3.1752357483 6.3951153755 -5.8832435608 1.3920888901 
6.3951153755 -5.8832435608 1.3920888901 8.2316665649 -5.0338215828 3.1752357483 6.3951153755 -5.0338215828 2.5376520157 
10.986494064 -4.6365566254 1.3920888901 8.2316665649 -5.8059167862 1.3920888901 8.2316665649 -5.0338215828 -0.076549530029 
8.2316665649 -5.8059167862 1.3920888901 10.986494064 -4.9165792465 2.338924408 8.2316665649 -5.0338215828 3.1752357483 
8.2316665649 -5.0338215828 3.1752357483 10.986494064 -4.9165792465 2.338924408 10.986494064 -4.5833969116 3.2857589722 
10.986494064 -4.9165792465 2.338924408 8.2316665649 -5.8059167862 1.3920888901 10.986494064 -4.6365566254 1.3920888901 
3.6402878761 -4.1103005409 -1.1153039932 3.7338881493 -5.0338215828 0.44525337219 2.446202755 -4.1103005409 0.44525337219 
3.7338881493 -5.0338215828 0.44525337219 3.6402878761 -4.1103005409 -1.1153039932 4.5585637093 -5.0433077812 -0.50158214569 
3.6402878761 -4.4082565308 1.3920888901 2.446202755 -4.1103005409 0.44525337219 3.7338881493 -5.0338215828 0.44525337219 
3.6402878761 -4.4082565308 1.3920888901 3.7338881493 -5.0338215828 0.44525337219 6.3951153755 -5.0338215828 2.5376520157 
3.6402878761 -4.4082565308 1.3920888901 6.3951153755 -5.0338215828 2.5376520157 4.5585637093 -4.1103005409 2.1760149002 
6.3951153755 -4.1103005409 -1.3675909042 4.5585637093 -5.0433077812 -0.50158214569 3.6402878761 -4.1103005409 -1.1153039932 
4.5585637093 -4.1103005409 2.1760149002 6.3951153755 -5.0338215828 2.5376520157 8.2316665649 -4.1103005409 3.7357902527 
6.3951153755 -5.8150577545 0.44525337219 6.3951153755 -4.1103005409 -1.3675909042 8.2316665649 -5.0338215828 -0.076549530029 
8.2316665649 -5.0338215828 3.1752357483 8.2316665649 -4.1103005409 3.7357902527 6.3951153755 -5.0338215828 2.5376520157 
8.2316665649 -5.0338215828 -0.076549530029 10.986494064 -3.9612708092 0.44525337219 10.986494064 -4.6365566254 1.3920888901 
8.2316665649 -5.0338215828 3.1752357483 10.986494064 -4.5833969116 3.2857589722 10.068218231 -3.1867794991 4.3487205505 
8.2316665649 -4.1103005409 3.7357902527 8.2316665649 -5.0338215828 3.1752357483 10.068218231 -3.1867794991 4.3487205505 
1.8037366867 -2.263258934 -1.5373916626 2.446202755 -4.1103005409 0.44525337219 0.42433071136 -0.41621685028 -0.50158214569 
2.446202755 -4.1103005409 0.44525337219 1.8037366867 -2.263258934 -1.5373916626 3.6402878761 -4.1103005409 -1.1153039932 
1.8037366867 -2.263258934 -1.5373916626 5.4768395424 -2.263258934 -2.2512454987 3.6402878761 -4.1103005409 -1.1153039932 
3.6402878761 -4.1103005409 -1.1153039932 5.4768395424 -2.263258934 -2.2512454987 6.3951153755 -4.1103005409 -1.3675909042 
5.4768395424 -2.263258934 -2.2512454987 8.2316665649 -2.263258934 -1.9483737946 6.3951153755 -4.1103005409 -1.3675909042 
6.3951153755 -4.1103005409 -1.3675909042 8.2316665649 -2.263258934 -1.9483737946 8.2316665649 -5.0338215828 -0.076549530029 
10.986494064 -3.9612708092 0.44525337219 8.2316665649 -5.0338215828 -0.076549530029 8.2316665649 -2.263258934 -1.9483737946 
14.65959549 -1.9821996689 3.2857589722 10.986494064 -4.5833969116 3.2857589722 10.986494064 -4.9165792465 2.338924408 
2.446202755 -4.1103005409 0.44525337219 3.6402878761 -4.4082565308 1.3920888901 1.8037366867 -2.263258934 1.4039402008 
1.8037366867 -2.263258934 1.4039402008 3.6402878761 -4.4082565308 1.3920888901 3.6402878761 -2.263258934 2.3957090378 
3.6402878761 -2.263258934 2.3957090378 3.6402878761 -4.4082565308 1.3920888901 4.5585637093 -4.1103005409 2.1760149002 
3.6402878761 -2.263258934 2.3957090378 4.5585637093 -4.1103005409 2.1760149002 8.2316665649 -4.1103005409 3.7357902527 
8.2316665649 -4.1103005409 3.7357902527 7.3133912086 -2.263258934 4.0233306885 3.6402878761 -2.263258934 2.3957090378 
7.3133912086 -2.263258934 4.0233306885 8.2316665649 -4.1103005409 3.7357902527 10.068218231 -3.1867794991 4.3487205505 
11.90476799 -1.3397378922 -0.91684818268 10.986494064 -3.9612708092 0.44525337219 8.2316665649 -2.263258934 -1.9483737946 
10.986494064 -4.5833969116 3.2857589722 12.823043823 -1.3397378922 4.9278087616 10.068218231 -3.1867794991 4.3487205505 
12.823043823 -1.3397378922 4.9278087616 10.986494064 -4.5833969116 3.2857589722 13.741319656 -2.2060146332 4.2325954437 
10.986494064 -3.9612708092 0.44525337219 13.767301559 -2.263258934 1.3920888901 10.986494064 -4.6365566254 1.3920888901 
10.986494064 -4.6365566254 1.3920888901 13.767301559 -2.263258934 1.3920888901 10.986494064 -4.9165792465 2.338924408 
14.65959549 -1.9821996689 3.2857589722 13.741319656 -2.2060146332 4.2325954437 10.986494064 -4.5833969116 3.2857589722 
14.65959549 -1.9821996689 3.2857589722 10.986494064 -4.9165792465 2.338924408 13.767301559 -2.263258934 1.3920888901 
0.42433071136 -0.41621685028 -0.50158214569 2.446202755 -4.1103005409 0.44525337219 0.39716815948 -0.41621685028 0.44525337219 
2.446202755 -4.1103005409 0.44525337219 1.8037366867 -2.263258934 1.4039402008 0.39716815948 -0.41621685028 0.44525337219 
3.6402878761 -2.263258934 2.3957090378 1.8037366867 -0.41621685028 1.7857456207 1.8037366867 -2.263258934 1.4039402008 
8.2316665649 -2.263258934 -1.9483737946 5.4768395424 -2.263258934 -2.2512454987 7.3133912086 0.50730419159 -3.064909935 
3.6402878761 -2.263258934 2.3957090378 7.3133912086 -2.263258934 4.0233306885 6.3951153755 -0.41621685028 3.8220424652 
12.823043823 -1.3397378922 4.9278087616 7.3133912086 -2.263258934 4.0233306885 10.068218231 -3.1867794991 4.3487205505 
11.90476799 -1.3397378922 -0.91684818268 13.741319656 -0.41621685028 -0.28993988037 10.986494064 -3.9612708092 0.44525337219 
10.986494064 -3.9612708092 0.44525337219 13.741319656 -0.41621685028 -0.28993988037 13.767301559 -2.263258934 1.3920888901 
14.65959549 -1.9821996689 3.2857589722 13.767301559 -2.263258934 1.3920888901 16.21959877 0.50730419159 1.3920888901 
16.496147156 0.40710163116 4.2325954437 13.741319656 -2.2060146332 4.2325954437 14.65959549 -1.9821996689 3.2857589722 
13.741319656 -2.2060146332 4.2325954437 16.496147156 0.40710163116 4.2325954437 14.65959549 -0.41621685028 4.9115123749 
1.8037366867 0.50730419159 -1.9177751541 1.8037366867 -2.263258934 -1.5373916626 0.42433071136 -0.41621685028 -0.50158214569 
1.8037366867 -2.263258934 1.4039402008 1.8037366867 -0.41621685028 1.7857456207 0.39716815948 -0.41621685028 0.44525337219 
5.4768395424 0.50730419159 -2.9991884232 1.8037366867 -2.263258934 -1.5373916626 1.8037366867 0.50730419159 -1.9177751541 
6.3951153755 -0.41621685028 3.8220424652 1.8037366867 -0.41621685028 1.7857456207 3.6402878761 -2.263258934 2.3957090378 
5.4768395424 -2.263258934 -2.2512454987 1.8037366867 -2.263258934 -1.5373916626 5.4768395424 0.50730419159 -2.9991884232 
7.3133912086 0.50730419159 -3.064909935 5.4768395424 -2.263258934 -2.2512454987 5.4768395424 0.50730419159 -2.9991884232 
10.068218231 0.50730419159 4.7560119629 6.3951153755 -0.41621685028 3.8220424652 7.3133912086 -2.263258934 4.0233306885 
12.823043823 -1.3397378922 4.9278087616 12.823043823 0.50730419159 5.2681427002 7.3133912086 -2.263258934 4.0233306885 
12.823043823 0.50730419159 5.2681427002 10.068218231 0.50730419159 4.7560119629 7.3133912086 -2.263258934 4.0233306885 
13.741319656 -2.2060146332 4.2325954437 14.65959549 -0.41621685028 4.9115123749 12.823043823 -1.3397378922 4.9278087616 
14.65959549 -0.41621685028 4.9115123749 12.823043823 0.50730419159 5.2681427002 12.823043823 -1.3397378922 4.9278087616 
13.767301559 -2.263258934 1.3920888901 13.741319656 -0.41621685028 -0.28993988037 16.21959877 0.50730419159 1.3920888901 
16.496147156 -0.057467460632 3.2857589722 14.65959549 -1.9821996689 3.2857589722 16.21959877 0.50730419159 1.3920888901 
16.496147156 0.40710163116 4.2325954437 14.65959549 -1.9821996689 3.2857589722 16.496147156 -0.057467460632 3.2857589722 
0.42433071136 -0.41621685028 -0.50158214569 0.39716815948 -0.41621685028 0.44525337219 0.42679643631 0.50730419159 -0.50158214569 
0.39716815948 -0.41621685028 0.44525337219 0.3983707428 0.50730419159 0.44525337219 0.42679643631 0.50730419159 -0.50158214569 
0.42679643631 0.50730419159 -0.50158214569 1.8037366867 0.50730419159 -1.9177751541 0.42433071136 -0.41621685028 -0.50158214569 
3.6402878761 1.4308252335 -2.6924648285 5.4768395424 0.50730419159 -2.9991884232 1.8037366867 0.50730419159 -1.9177751541 
6.3951153755 -0.41621685028 3.8220424652 4.5585637093 1.4308252335 2.935962677 1.8037366867 -0.41621685028 1.7857456207 
10.986494064 0.50730419159 -2.231836319 8.2316665649 -2.263258934 -1.9483737946 7.3133912086 0.50730419159 -3.064909935 
10.986494064 0.50730419159 -2.231836319 11.90476799 -1.3397378922 -0.91684818268 8.2316665649 -2.263258934 -1.9483737946 
10.986494064 0.50730419159 -2.231836319 13.741319656 -0.41621685028 -0.28993988037 11.90476799 -1.3397378922 -0.91684818268 
0.39716815948 -0.41621685028 0.44525337219 1.8037366867 -0.41621685028 1.7857456207 0.3983707428 0.50730419159 0.44525337219 
10.986494064 0.50730419159 -2.231836319 12.823043823 2.3543462753 -2.1072483063 13.741319656 -0.41621685028 -0.28993988037 
[...]
CELL_DATA 732
FIELD FieldData 1
GroupIds 1 732 float
0 0 0 0 0 0 0 0 0 
0 0 0 0 0 0 0 0 0 
0 0 0 0 0 0 0 0 0 
0 0 0 0 0 0 0 0 0 
0 0 0 0 0 0 0 0 0 
0 0 0 0 0 0 0 0 0 
0 0 0 0 0 0 0 0 0 
0 0 0 0 0 0 0 0 0 
0 0 0 0 0 0 0 0 0 
0 0 0 0 0 0 0 0 0 
0 0 0 0 0 0 0 0 0 
0 0 0 0 0 0 0 0 0 
0 0 0 0 0 0 0 0 0 
0 0 0 0 0 0 0 0 0 
0 0 0 0 0 0 0 0 0 
0 0 0 0 0 0 0 0 0 
0 0 0 0 0 0 0 0 0 
0 0 0 0 0 0 0 0 0 
0 0 0 0 0 0 0 0 0 
0 0 0 0 0 0 0 0 0 
0 0 0 0 0 0 0 0 0 
0 0 0 0 0 0 0 0 0 
0 0 0 0 0 0 0 0 0 
0 0 0 0 0 0 0 0 0 
0 0 0 0 0 0 0 0 0 
0 0 0 0 0 0 0 0 0 
0 0 0 0 0 0 0 0 0 
0 0 0 0 0 0 0 0 0 
0 0 0 0 0 0 0 0 0 
0 0 0 0 0 0 0 0 0 
0 0 0 0 0 0 0 0 0 
0 0 0 0 0 0 0 0 0 
0 0 0 0 0 0 0 0 0 
0 0 0 0 0 0 0 0 0 
0 0 0 0 0 0 0 0 0 
0 0 0 0 0 0 0 0 0 
0 0 0 0 0 0 0 0 0 
0 0 0 0 0 0 0 0 0 
0 0 0 0 0 0 0 0 0 
0 0 0 0 0 0 0 0 0 
0 0 0 0 0 0 0 0 0 
0 0 0 0 0 0 0 0 0 
0 0 0 0 0 0 0 0 0 
0 0 0 0 0 0 0 0 0 
0 0 0 0 0 0 0 0 0 
0 0 0 0 0 0 0 0 0 
0 0 0 0 0 0 0 0 0 
0 0 0 0 0 0 0 0 0 
0 0 0 0 0 0 0 0 0 
0 0 0 0 0 0 0 0 0 
0 0 0 0 0 0 0 0 0 
0 0 0 0 0 0 0 0 0 
0 0 0 0 0 0 0 0 0 
0 0 0 0 0 0 0 0 0 
0 0 0 0 0 0 0 0 0 
0 0 0 0 0 0 0 0 0 
0 0 0 0 0 0 0 0 0 
0 0 0 0 0 0 0 0 0 
0 0 0 0 0 0 0 0 0 
0 0 0 0 0 0 0 0 0 
0 0 0 0 0 0 0 0 0 
0 0 0 0 0 0 0 0 0 
0 0 0 0 0 0 0 0 0 
0 0 0 0 0 0 0 0 0 
0 0 0 0 0 0 0 0 0 
0 0 0 0 0 0 0 0 0 
0 0 0 0 0 0 0 0 0 
0 0 0 0 0 0 0 0 0 
0 0 0 0 0 0 0 0 0 
0 0 0 0 0 0 0 0 0 
0 0 0 0 0 0 0 0 0 
0 0 0 0 0 0 0 0 0 
0 0 0 0 0 0 0 0 0 
0 0 0 0 0 0 0 0 0 
0 0 0 0 0 0 0 0 0 
0 0 0 0 0 0 0 0 0 
0 0 0 0 0 0 0 0 0 
0 0 0 0 0 0 0 0 0 
0 0 0 0 0 0 0 0 0 
0 0 0 0 0 0 0 0 0 
0 0 0 0 0 0 0 0 0 
0 0 0 
POINT_DATA 2196
NORMALS Normals float
0.047005 -0.727685 -0.684299 0.047005 -0.727685 -0.684299 0.047005 -0.727685 -0.684299 
-0.274162 -0.933914 -0.229433 -0.274162 -0.933914 -0.229433 -0.274162 -0.933914 -0.229433 
-0.281006 -0.957227 -0.0689342 -0.281006 -0.957227 -0.0689342 -0.281006 -0.957227 -0.0689342 
-0.424103 -0.727452 0.539398 -0.424103 -0.727452 0.539398 -0.424103 -0.727452 0.539398 
0.237329 -0.859846 -0.45204 0.237329 -0.859846 -0.45204 0.237329 -0.859846 -0.45204 
0.0419586 -0.996539 -0.0717651 0.0419586 -0.996539 -0.0717651 0.0419586 -0.996539 -0.0717651 
0.038609 -0.916984 0.39705 0.038609 -0.916984 0.39705 0.038609 -0.916984 0.39705 
-0.202492 -0.786629 0.583277 -0.202492 -0.786629 0.583277 -0.202492 -0.786629 0.583277 
0.351714 -0.828582 -0.435603 0.351714 -0.828582 -0.435603 0.351714 -0.828582 -0.435603 
0.157684 -0.906188 0.392376 0.157684 -0.906188 0.392376 0.157684 -0.906188 0.392376 
0.139537 -0.934072 0.328691 0.139537 -0.934072 0.328691 0.139537 -0.934072 0.328691 
0.377012 -0.88818 -0.262675 0.377012 -0.88818 -0.262675 0.377012 -0.88818 -0.262675 
-0.532276 -0.742163 -0.407279 -0.532276 -0.742163 -0.407279 -0.532276 -0.742163 -0.407279 
-0.492374 -0.761672 -0.421217 -0.492374 -0.761672 -0.421217 -0.492374 -0.761672 -0.421217 
-0.525559 -0.732798 0.432198 -0.525559 -0.732798 0.432198 -0.525559 -0.732798 0.432198 
-0.380092 -0.788564 0.483422 -0.380092 -0.788564 0.483422 -0.380092 -0.788564 0.483422 
-0.423042 -0.563381 0.709674 -0.423042 -0.563381 0.709674 -0.423042 -0.563381 0.709674 
-0.0731406 -0.597331 -0.798653 -0.0731406 -0.597331 -0.798653 -0.0731406 -0.597331 -0.798653 
-0.360775 -0.384766 0.849586 -0.360775 -0.384766 0.849586 -0.360775 -0.384766 0.849586 
0.11449 -0.7237 -0.680551 0.11449 -0.7237 -0.680551 0.11449 -0.7237 -0.680551 
-0.284509 -0.49743 0.819523 -0.284509 -0.49743 0.819523 -0.284509 -0.49743 0.819523 
0.392668 -0.748758 -0.534016 0.392668 -0.748758 -0.534016 0.392668 -0.748758 -0.534016 
0.0619316 -0.578371 0.813419 0.0619316 -0.578371 0.813419 0.0619316 -0.578371 0.813419 
-0.0243718 -0.518719 0.854597 -0.0243718 -0.518719 0.854597 -0.0243718 -0.518719 0.854597 
-0.835778 -0.509744 -0.204051 -0.835778 -0.509744 -0.204051 -0.835778 -0.509744 -0.204051 
-0.581981 -0.680438 -0.445312 -0.581981 -0.680438 -0.445312 -0.581981 -0.680438 -0.445312 
-0.176267 -0.382528 -0.906974 -0.176267 -0.382528 -0.906974 -0.176267 -0.382528 -0.906974 
-0.0808542 -0.462582 -0.882882 -0.0808542 -0.462582 -0.882882 -0.0808542 -0.462582 -0.882882 
0.100714 -0.388187 -0.916061 0.100714 -0.388187 -0.916061 0.100714 -0.388187 -0.916061 
0.28821 -0.536066 -0.793453 0.28821 -0.536066 -0.793453 0.28821 -0.536066 -0.793453 
0.351049 -0.524192 -0.775878 0.351049 -0.524192 -0.775878 0.351049 -0.524192 -0.775878 
0.55548 -0.784383 0.276017 0.55548 -0.784383 0.276017 0.55548 -0.784383 0.276017 
-0.606057 -0.522222 0.599982 -0.606057 -0.522222 0.599982 -0.606057 -0.522222 0.599982 
-0.439381 -0.380695 0.813643 -0.439381 -0.380695 0.813643 -0.439381 -0.380695 0.813643 
-0.536495 -0.357641 0.764373 -0.536495 -0.357641 0.764373 -0.536495 -0.357641 0.764373 
-0.373988 -0.290686 0.880701 -0.373988 -0.290686 0.880701 -0.373988 -0.290686 0.880701 
-0.383124 -0.325072 0.864606 -0.383124 -0.325072 0.864606 -0.383124 -0.325072 0.864606 
-0.194154 -0.244423 0.950032 -0.194154 -0.244423 0.950032 -0.194154 -0.244423 0.950032 
0.349913 -0.525505 -0.775503 0.349913 -0.525505 -0.775503 0.349913 -0.525505 -0.775503 
0.173988 -0.521409 0.835381 0.173988 -0.521409 0.835381 0.173988 -0.521409 0.835381 
0.153736 -0.514196 0.843782 0.153736 -0.514196 0.843782 0.153736 -0.514196 0.843782 
0.570616 -0.668594 -0.476843 0.570616 -0.668594 -0.476843 0.570616 -0.668594 -0.476843 
0.633346 -0.742095 -0.219472 0.633346 -0.742095 -0.219472 0.633346 -0.742095 -0.219472 
0.542444 -0.765974 0.345019 0.542444 -0.765974 0.345019 0.542444 -0.765974 0.345019 
0.642302 -0.741873 -0.192543 0.642302 -0.741873 -0.192543 0.642302 -0.741873 -0.192543 
-0.874207 -0.484905 -0.025079 -0.874207 -0.484905 -0.025079 -0.874207 -0.484905 -0.025079 
-0.825774 -0.458041 0.329083 -0.825774 -0.458041 0.329083 -0.825774 -0.458041 0.329083 
-0.467491 -0.17895 0.865696 -0.467491 -0.17895 0.865696 -0.467491 -0.17895 0.865696 
0.10268 -0.342348 -0.933946 0.10268 -0.342348 -0.933946 0.10268 -0.342348 -0.933946 
-0.403044 -0.101255 0.909562 -0.403044 -0.101255 0.909562 -0.403044 -0.101255 0.909562 
-0.146593 -0.0902027 0.985076 -0.146593 -0.0902027 0.985076 -0.146593 -0.0902027 0.985076 
0.500382 -0.53071 -0.68408 0.500382 -0.53071 -0.68408 0.500382 -0.53071 -0.68408 
0.551618 -0.557349 -0.620548 0.551618 -0.557349 -0.620548 0.551618 -0.557349 -0.620548 
0.725681 -0.642319 -0.246606 0.725681 -0.642319 -0.246606 0.725681 -0.642319 -0.246606 
0.616542 -0.649978 0.444302 0.616542 -0.649978 0.444302 0.616542 -0.649978 0.444302 
0.491072 -0.517704 0.700593 0.491072 -0.517704 0.700593 0.491072 -0.517704 0.700593 
-0.679462 -0.0997984 -0.726892 -0.679462 -0.0997984 -0.726892 -0.679462 -0.0997984 -0.726892 
-0.682302 -0.147992 0.715935 -0.682302 -0.147992 0.715935 -0.682302 -0.147992 0.715935 
-0.28001 -0.130578 -0.951075 -0.28001 -0.130578 -0.951075 -0.28001 -0.130578 -0.951075 
-0.403359 -0.100723 0.909481 -0.403359 -0.100723 0.909481 -0.403359 -0.100723 0.909481 
-0.184411 -0.25616 -0.948881 -0.184411 -0.25616 -0.948881 -0.184411 -0.25616 -0.948881 
-0.0345279 -0.260475 -0.964863 -0.0345279 -0.260475 -0.964863 -0.0345279 -0.260475 -0.964863 
-0.242851 -0.0150325 0.969947 -0.242851 -0.0150325 0.969947 -0.242851 -0.0150325 0.969947 
-0.129959 -0.179672 0.975104 -0.129959 -0.179672 0.975104 -0.129959 -0.179672 0.975104 
-0.182214 -0.0780253 0.980158 -0.182214 -0.0780253 0.980158 -0.182214 -0.0780253 0.980158 
0.232402 -0.44692 0.863858 0.232402 -0.44692 0.863858 0.232402 -0.44692 0.863858 
0.0993542 -0.180312 0.978579 0.0993542 -0.180312 0.978579 0.0993542 -0.180312 0.978579 
0.602102 -0.532936 -0.594519 0.602102 -0.532936 -0.594519 0.602102 -0.532936 -0.594519 
0.69074 -0.659094 -0.297444 0.69074 -0.659094 -0.297444 0.69074 -0.659094 -0.297444 
0.685244 -0.65385 0.320814 0.685244 -0.65385 0.320814 0.685244 -0.65385 0.320814 
-0.999585 0.00266881 -0.0286758 -0.999585 0.00266881 -0.0286758 -0.999585 0.00266881 -0.0286758 
-0.999549 0.00130158 -0.0300082 -0.999549 0.00130158 -0.0300082 -0.999549 0.00130158 -0.0300082 
-0.716972 0.00191422 -0.697099 -0.716972 0.00191422 -0.697099 -0.716972 0.00191422 -0.697099 
-0.274439 -0.23617 -0.932152 -0.274439 -0.23617 -0.932152 -0.274439 -0.23617 -0.932152 
-0.405167 0.0353945 0.913557 -0.405167 0.0353945 0.913557 -0.405167 0.0353945 0.913557 
0.210681 -0.304524 -0.928913 0.210681 -0.304524 -0.928913 0.210681 -0.304524 -0.928913 
0.342301 -0.426038 -0.83745 0.342301 -0.426038 -0.83745 0.342301 -0.426038 -0.83745 
0.456635 -0.354047 -0.816171 0.456635 -0.354047 -0.816171 0.456635 -0.354047 -0.816171 
-0.689899 0.000898361 0.723905 -0.689899 0.000898361 0.723905 -0.689899 0.000898361 0.723905 
0.442074 -0.384913 -0.810193 0.442074 -0.384913 -0.810193 0.442074 -0.384913 -0.810193 
0.477567 -0.365717 -0.798863 0.477567 -0.365717 -0.798863 0.477567 -0.365717 -0.798863 
0.112763 -0.154772 0.981494 0.112763 -0.154772 0.981494 0.112763 -0.154772 0.981494 
0.448076 -0.307201 0.839557 0.448076 -0.307201 0.839557 0.448076 -0.307201 0.839557 
0.845474 -0.526337 -0.0902398 0.845474 -0.526337 -0.0902398 0.845474 -0.526337 -0.0902398 
0.796062 -0.53822 -0.276775 0.796062 -0.53822 -0.276775 0.796062 -0.53822 -0.276775 
0.82176 -0.511574 0.251006 0.82176 -0.511574 0.251006 0.82176 -0.511574 0.251006 
-0.950592 0.309127 -0.0285385 -0.950592 0.309127 -0.0285385 -0.950592 0.309127 -0.0285385 
-0.714178 0.0882203 -0.694383 -0.714178 0.0882203 -0.694383 -0.714178 0.0882203 -0.694383 
-0.806496 0.262268 -0.529887 -0.806496 0.262268 -0.529887 -0.806496 0.262268 -0.529887 
-0.607163 0.194349 0.770442 -0.607163 0.194349 0.770442 -0.607163 0.194349 0.770442 
-0.434072 0.113543 -0.893695 -0.434072 0.113543 -0.893695 -0.434072 0.113543 -0.893695 
-0.478031 0.177252 0.860272 -0.478031 0.177252 0.860272 -0.478031 0.177252 0.860272 
-0.197756 -0.0684964 -0.977855 -0.197756 -0.0684964 -0.977855 -0.197756 -0.0684964 -0.977855 
-0.121379 -0.0693597 -0.99018 -0.121379 -0.0693597 -0.99018 -0.121379 -0.0693597 -0.99018 
-0.278798 0.175715 0.944138 -0.278798 0.175715 0.944138 -0.278798 0.175715 0.944138 
-0.0354424 -0.133484 -0.990417 -0.0354424 -0.133484 -0.990417 -0.0354424 -0.133484 -0.990417 
-0.283582 0.174228 0.942988 -0.283582 0.174228 0.942988 -0.283582 0.174228 0.942988 
-0.282567 0.175905 0.942981 -0.282567 0.175905 0.942981 -0.282567 0.175905 0.942981 
0.214263 -0.248235 -0.944707 0.214263 -0.248235 -0.944707 0.214263 -0.248235 -0.944707 
-0.180846 0.14479 0.972795 -0.180846 0.14479 0.972795 -0.180846 0.14479 0.972795 
0.344501 -0.282148 -0.895383 0.344501 -0.282148 -0.895383 0.344501 -0.282148 -0.895383 
0.647826 -0.479973 -0.591563 0.647826 -0.479973 -0.591563 0.647826 -0.479973 -0.591563 
0.611851 -0.41057 -0.676069 0.611851 -0.41057 -0.676069 0.611851 -0.41057 -0.676069 
0.472742 -0.281306 0.835094 0.472742 -0.281306 0.835094 0.472742 -0.281306 0.835094 
0.815077 -0.485014 0.316878 0.815077 -0.485014 0.316878 0.815077 -0.485014 0.316878 
-0.789635 0.286917 -0.542361 -0.789635 0.286917 -0.542361 -0.789635 0.286917 -0.542361 
-0.94726 0.320376 0.00764855 -0.94726 0.320376 0.00764855 -0.94726 0.320376 0.00764855 
-0.627307 0.212164 0.749315 -0.627307 0.212164 0.749315 -0.627307 0.212164 0.749315 
0.0487131 0.0393476 0.998037 0.0487131 0.0393476 0.998037 0.0487131 0.0393476 0.998037 
0.439932 -0.162464 0.883213 0.439932 -0.162464 0.883213 0.439932 -0.162464 0.883213 
0.794222 -0.532947 -0.291854 0.794222 -0.532947 -0.291854 0.794222 -0.532947 -0.291854 
-0.394548 0.196443 -0.897631 -0.394548 0.196443 -0.897631 -0.394548 0.196443 -0.897631 
-0.40692 0.236978 0.882189 -0.40692 0.236978 0.882189 -0.40692 0.236978 0.882189 
0.176306 -0.182787 -0.967215 0.176306 -0.182787 -0.967215 0.176306 -0.182787 -0.967215 
-0.135557 0.175442 0.975113 -0.135557 0.175442 0.975113 -0.135557 0.175442 0.975113 
-0.0218852 0.132209 0.99098 -0.0218852 0.132209 0.99098 -0.0218852 0.132209 0.99098 
-0.547699 0.131334 -0.826303 -0.547699 0.131334 -0.826303 -0.547699 0.131334 -0.826303 
-0.320691 0.430715 0.843589 -0.320691 0.430715 0.843589 -0.320691 0.430715 0.843589 
-0.0998717 -0.00378296 -0.994993 -0.0998717 -0.00378296 -0.994993 -0.0998717 -0.00378296 -0.994993 
-0.263954 0.392941 0.880866 -0.263954 0.392941 0.880866 -0.263954 0.392941 0.880866 
-0.222023 0.353814 0.908582 -0.222023 0.353814 0.908582 -0.222023 0.353814 0.908582 
0.450765 -0.163978 -0.877452 0.450765 -0.163978 -0.877452 0.450765 -0.163978 -0.877452 
0.322788 -0.173866 -0.930365 0.322788 -0.173866 -0.930365 0.322788 -0.173866 -0.930365 
0.290758 -0.158133 -0.943638 0.290758 -0.158133 -0.943638 0.290758 -0.158133 -0.943638 
0.475774 -0.361797 -0.801712 0.475774 -0.361797 -0.801712 0.475774 -0.361797 -0.801712 
0.490507 -0.0860387 0.86718 0.490507 -0.0860387 0.86718 0.490507 -0.0860387 0.86718 
0.799585 -0.222673 0.557746 0.799585 -0.222673 0.557746 0.799585 -0.222673 0.557746 
-0.834326 0.539957 -0.111116 -0.834326 0.539957 -0.111116 -0.834326 0.539957 -0.111116 
-0.819456 0.553027 -0.15051 -0.819456 0.553027 -0.15051 -0.819456 0.553027 -0.15051 
-0.839505 0.543309 0.0067785 -0.839505 0.543309 0.0067785 -0.839505 0.543309 0.0067785 
-0.681938 0.460221 -0.568469 -0.681938 0.460221 -0.568469 -0.681938 0.460221 -0.568469 
-0.679807 0.56303 0.469957 -0.679807 0.56303 0.469957 -0.679807 0.56303 0.469957 
-0.540439 0.207671 -0.815352 -0.540439 0.207671 -0.815352 -0.540439 0.207671 -0.815352 
-0.524652 0.601541 0.602402 -0.524652 0.601541 0.602402 -0.524652 0.601541 0.602402 
-0.257274 0.456803 0.851552 -0.257274 0.456803 0.851552 -0.257274 0.456803 0.851552 
0.0339153 0.0628438 -0.997447 0.0339153 0.0628438 -0.997447 0.0339153 0.0628438 -0.997447 
-0.330375 0.541141 0.773316 -0.330375 0.541141 0.773316 -0.330375 0.541141 0.773316 
0.198182 -0.102686 -0.974772 0.198182 -0.102686 -0.974772 0.198182 -0.102686 -0.974772 
0.256625 -0.0614913 -0.964553 0.256625 -0.0614913 -0.964553 0.256625 -0.0614913 -0.964553 
-0.280796 0.390999 0.876512 -0.280796 0.390999 0.876512 -0.280796 0.390999 0.876512 
0.666784 -0.465967 -0.581614 0.666784 -0.465967 -0.581614 0.666784 -0.465967 -0.581614 
0.784852 -0.548477 -0.288411 0.784852 -0.548477 -0.288411 0.784852 -0.548477 -0.288411 
0.878339 -0.475168 -0.0523117 0.878339 -0.475168 -0.0523117 0.878339 -0.475168 -0.0523117 
0.879292 -0.475683 -0.0239084 0.879292 -0.475683 -0.0239084 0.879292 -0.475683 -0.0239084 
0.769911 -0.262 0.581888 0.769911 -0.262 0.581888 0.769911 -0.262 0.581888 
0.646079 -0.218092 0.731449 0.646079 -0.218092 0.731449 0.646079 -0.218092 0.731449 
-0.240686 0.39763 -0.885415 -0.240686 0.39763 -0.885415 -0.240686 0.39763 -0.885415 
-0.39669 0.709099 0.582937 -0.39669 0.709099 0.582937 -0.39669 0.709099 0.582937 
-0.293904 0.408714 -0.864044 -0.293904 0.408714 -0.864044 -0.293904 0.408714 -0.864044 
-0.106053 0.505315 -0.856393 -0.106053 0.505315 -0.856393 -0.106053 0.505315 -0.856393 
-0.252829 0.747382 0.614409 -0.252829 0.747382 0.614409 -0.252829 0.747382 0.614409 
0.0311862 0.39724 -0.917185 0.0311862 0.39724 -0.917185 0.0311862 0.39724 -0.917185 
0.0257544 0.39501 -0.918316 0.0257544 0.39501 -0.918316 0.0257544 0.39501 -0.918316 
0.284689 0.0276492 -0.958221 0.284689 0.0276492 -0.958221 0.284689 0.0276492 -0.958221 
0.272829 -0.0594946 -0.960221 0.272829 -0.0594946 -0.960221 0.272829 -0.0594946 -0.960221 
0.0101284 0.0288412 -0.999533 0.0101284 0.0288412 -0.999533 0.0101284 0.0288412 -0.999533 
-0.173917 0.37809 0.909286 -0.173917 0.37809 0.909286 -0.173917 0.37809 0.909286 
0.0659373 0.21689 0.973967 0.0659373 0.21689 0.973967 0.0659373 0.21689 0.973967 
0.148045 0.201922 0.968148 0.148045 0.201922 0.968148 0.148045 0.201922 0.968148 
-0.458424 0.802379 -0.382145 -0.458424 0.802379 -0.382145 -0.458424 0.802379 -0.382145 
-0.488123 0.872538 -0.0203361 -0.488123 0.872538 -0.0203361 -0.488123 0.872538 -0.0203361 
-0.496033 0.868206 -0.0130016 -0.496033 0.868206 -0.0130016 -0.496033 0.868206 -0.0130016 
-0.375036 0.797388 -0.472779 -0.375036 0.797388 -0.472779 -0.375036 0.797388 -0.472779 
-0.15881 0.925161 0.344755 -0.15881 0.925161 0.344755 -0.15881 0.925161 0.344755 
-0.152624 0.889123 0.43147 -0.152624 0.889123 0.43147 -0.152624 0.889123 0.43147 
-0.426771 0.636285 0.642657 -0.426771 0.636285 0.642657 -0.426771 0.636285 0.642657 
0.025177 0.43983 -0.897728 0.025177 0.43983 -0.897728 0.025177 0.43983 -0.897728 
0.477539 -0.359866 -0.801531 0.477539 -0.359866 -0.801531 0.477539 -0.359866 -0.801531 
0.689301 -0.403761 -0.601533 0.689301 -0.403761 -0.601533 0.689301 -0.403761 -0.601533 
0.0603521 0.995158 -0.0775709 0.0603521 0.995158 -0.0775709 0.0603521 0.995158 -0.0775709 
-0.0911829 0.874978 -0.475499 -0.0911829 0.874978 -0.475499 -0.0911829 0.874978 -0.475499 
-0.255305 0.963788 0.0770195 -0.255305 0.963788 0.0770195 -0.255305 0.963788 0.0770195 
-0.226039 0.894933 -0.38471 -0.226039 0.894933 -0.38471 -0.226039 0.894933 -0.38471 
-0.328867 0.929666 -0.166036 -0.328867 0.929666 -0.166036 -0.328867 0.929666 -0.166036 
-0.299641 0.847048 0.439006 -0.299641 0.847048 0.439006 -0.299641 0.847048 0.439006 
-0.268821 0.807582 -0.524925 -0.268821 0.807582 -0.524925 -0.268821 0.807582 -0.524925 
-0.310358 0.932366 -0.185395 -0.310358 0.932366 -0.185395 -0.310358 0.932366 -0.185395 
-0.329384 0.667358 0.667936 -0.329384 0.667358 0.667936 -0.329384 0.667358 0.667936 
-0.175489 0.634949 0.752358 -0.175489 0.634949 0.752358 -0.175489 0.634949 0.752358 
0.0100942 -0.0869487 -0.996162 0.0100942 -0.0869487 -0.996162 0.0100942 -0.0869487 -0.996162 
-0.289944 0.428985 0.855514 -0.289944 0.428985 0.855514 -0.289944 0.428985 0.855514 
-0.158532 0.348015 0.923988 -0.158532 0.348015 0.923988 -0.158532 0.348015 0.923988 
0.069265 0.124811 0.98976 0.069265 0.124811 0.98976 0.069265 0.124811 0.98976 
0.412642 0.113963 0.903736 0.412642 0.113963 0.903736 0.412642 0.113963 0.903736 
0.654459 -0.419569 -0.629003 0.654459 -0.419569 -0.629003 0.654459 -0.419569 -0.629003 
0.890194 -0.34286 -0.300001 0.890194 -0.34286 -0.300001 0.890194 -0.34286 -0.300001 
0.915508 -0.35261 -0.193679 0.915508 -0.35261 -0.193679 0.915508 -0.35261 -0.193679 
-0.335984 0.923782 -0.183688 -0.335984 0.923782 -0.183688 -0.335984 0.923782 -0.183688 
-0.647158 0.728072 0.226048 -0.647158 0.728072 0.226048 -0.647158 0.728072 0.226048 
-0.602161 0.58197 0.546547 -0.602161 0.58197 0.546547 -0.602161 0.58197 0.546547 
-0.389758 0.537619 0.7477 -0.389758 0.537619 0.7477 -0.389758 0.537619 0.7477 
0.0717199 -0.16427 -0.983805 0.0717199 -0.16427 -0.983805 0.0717199 -0.16427 -0.983805 
0.0143272 -0.0890337 -0.995926 0.0143272 -0.0890337 -0.995926 0.0143272 -0.0890337 -0.995926 
0.327759 -0.305915 -0.893862 0.327759 -0.305915 -0.893862 0.327759 -0.305915 -0.893862 
0.442723 0.150357 0.883962 0.442723 0.150357 0.883962 0.442723 0.150357 0.883962 
0.743795 -0.00427639 0.668394 0.743795 -0.00427639 0.668394 0.743795 -0.00427639 0.668394 
0.941996 0.0562798 0.330873 0.941996 0.0562798 0.330873 0.941996 0.0562798 0.330873 
0.880104 -0.361623 -0.307647 0.880104 -0.361623 -0.307647 0.880104 -0.361623 -0.307647 
-0.506202 0.389704 -0.769344 -0.506202 0.389704 -0.769344 -0.506202 0.389704 -0.769344 
-0.588548 0.713275 0.380591 -0.588548 0.713275 0.380591 -0.588548 0.713275 0.380591 
-0.782991 0.602793 0.153512 -0.782991 0.602793 0.153512 -0.782991 0.602793 0.153512 
-0.787371 0.213558 -0.578309 -0.787371 0.213558 -0.578309 -0.787371 0.213558 -0.578309 
-0.149136 0.288689 -0.945736 -0.149136 0.288689 -0.945736 -0.149136 0.288689 -0.945736 
-0.154078 0.0771492 -0.985042 -0.154078 0.0771492 -0.985042 -0.154078 0.0771492 -0.985042 
-0.438506 0.316333 0.841217 -0.438506 0.316333 0.841217 -0.438506 0.316333 0.841217 
-0.917304 0.247243 0.312128 -0.917304 0.247243 0.312128 -0.917304 0.247243 0.312128 
0.355047 -0.302705 -0.884484 0.355047 -0.302705 -0.884484 0.355047 -0.302705 -0.884484 
0.0664437 0.306821 0.949445 0.0664437 0.306821 0.949445 0.0664437 0.306821 0.949445 
0.42855 -0.32233 -0.844067 0.42855 -0.32233 -0.844067 0.42855 -0.32233 -0.844067 
0.729245 -0.0454323 0.682742 0.729245 -0.0454323 0.682742 0.729245 -0.0454323 0.682742 