# vtk DataFile Version 4.2
3D Slicer output. SPACE=LPS
ASCII
DATASET POLYDATA
POINTS 1992 double
6.8373270035 -5.9614877701 0.15503501892 8.7487821579 -6.0034060478 1.0917835236 4.1483469009 -5.0618009567 1.0917835236 
8.7487821579 -6.0034060478 1.0917835236 7.7930545807 -5.8141822815 2.0285320282 4.1483469009 -5.0618009567 1.0917835236 
3.9701433182 -4.1135149002 -1.6336326599 5.8815984726 -5.0618009567 -1.0815124512 3.9701433182 -5.1297044754 -0.78171348572 
5.8815984726 -5.0618009567 -1.0815124512 6.8373270035 -5.9614877701 0.15503501892 3.9701433182 -5.1297044754 -0.78171348572 
3.9701433182 -5.1297044754 -0.78171348572 6.8373270035 -5.9614877701 0.15503501892 3.9701433182 -5.4198455811 0.15503501892 
6.8373270035 -5.9614877701 0.15503501892 4.1483469009 -5.0618009567 1.0917835236 3.9701433182 -5.4198455811 0.15503501892 
7.7930545807 -5.0618009567 2.7589473724 4.1483469009 -5.0618009567 1.0917835236 7.7930545807 -5.8141822815 2.0285320282 
5.8815984726 -5.0618009567 -1.0815124512 10.660237312 -4.1135149002 -0.73640632629 8.7487821579 -5.638478756 0.15503501892 
5.8815984726 -5.0618009567 -1.0815124512 8.7487821579 -5.638478756 0.15503501892 6.8373270035 -5.9614877701 0.15503501892 
6.8373270035 -5.9614877701 0.15503501892 8.7487821579 -5.638478756 0.15503501892 8.7487821579 -6.0034060478 1.0917835236 
8.7487821579 -5.638478756 0.15503501892 10.660237312 -4.1135149002 -0.73640632629 10.660237312 -4.9480576515 0.15503501892 
10.660237312 -4.9480576515 0.15503501892 10.660237312 -5.4135985374 1.0917835236 8.7487821579 -5.638478756 0.15503501892 
8.7487821579 -5.638478756 0.15503501892 10.660237312 -5.4135985374 1.0917835236 8.7487821579 -6.0034060478 1.0917835236 
10.660237312 -5.4135985374 1.0917835236 10.660237312 -5.3999114037 2.0285320282 8.7487821579 -6.0034060478 1.0917835236 
8.7487821579 -6.0034060478 1.0917835236 10.660237312 -5.3999114037 2.0285320282 7.7930545807 -5.8141822815 2.0285320282 
7.7930545807 -5.8141822815 2.0285320282 10.660237312 -5.3999114037 2.0285320282 11.615965843 -4.1800961494 2.9652805328 
7.7930545807 -5.0618009567 2.7589473724 7.7930545807 -5.8141822815 2.0285320282 11.615965843 -4.1800961494 2.9652805328 
3.9701433182 -4.1135149002 -1.6336326599 3.9701433182 -5.1297044754 -0.78171348572 1.4604649544 -3.1652288437 -0.78171348572 
3.9701433182 -5.1297044754 -0.78171348572 3.9701433182 -5.4198455811 0.15503501892 2.0586881638 -3.9892816544 0.15503501892 
1.4604649544 -3.1652288437 -0.78171348572 3.9701433182 -5.1297044754 -0.78171348572 2.0586881638 -3.9892816544 0.15503501892 
3.9701433182 -5.4198455811 0.15503501892 4.1483469009 -5.0618009567 1.0917835236 2.0586881638 -3.9892816544 0.15503501892 
7.7930545807 -3.1652288437 -2.1418600082 5.8815984726 -5.0618009567 -1.0815124512 3.9701433182 -4.1135149002 -1.6336326599 
7.7930545807 -5.0618009567 2.7589473724 5.8815984726 -3.1652288437 2.9039783478 4.1483469009 -5.0618009567 1.0917835236 
10.660237312 -4.1135149002 -0.73640632629 5.8815984726 -5.0618009567 -1.0815124512 7.7930545807 -3.1652288437 -2.1418600082 
7.7930545807 -5.0618009567 2.7589473724 11.615965843 -4.1800961494 2.9652805328 11.615965843 -2.2169427872 3.8053827286 
14.483147621 -3.0115399361 2.0285320282 10.660237312 -5.3999114037 2.0285320282 10.660237312 -5.4135985374 1.0917835236 
3.9701433182 -4.1135149002 -1.6336326599 1.4604649544 -3.1652288437 -0.78171348572 1.8705320358 -2.2169427872 -1.7184619904 
2.0586881638 -3.9892816544 0.15503501892 4.1483469009 -5.0618009567 1.0917835236 2.2757759094 -3.1652288437 1.0917835236 
4.1483469009 -5.0618009567 1.0917835236 5.8815984726 -3.1652288437 2.9039783478 2.2757759094 -3.1652288437 1.0917835236 
7.7930545807 -5.0618009567 2.7589473724 6.8373270035 -2.2169427872 3.343873024 5.8815984726 -3.1652288437 2.9039783478 
11.615965843 -2.2169427872 3.8053827286 6.8373270035 -2.2169427872 3.343873024 7.7930545807 -5.0618009567 2.7589473724 
10.660237312 -4.1135149002 -0.73640632629 7.7930545807 -3.1652288437 -2.1418600082 10.660237312 -2.2169427872 -2.0208959579 
10.660237312 -2.2169427872 -2.0208959579 14.483147621 -1.4507846832 -0.78171348572 10.660237312 -4.1135149002 -0.73640632629 
11.615965843 -4.1800961494 2.9652805328 13.527420998 -2.2169427872 3.4841451645 11.615965843 -2.2169427872 3.8053827286 
14.759982109 -2.2169427872 2.9652805328 13.527420998 -2.2169427872 3.4841451645 11.615965843 -4.1800961494 2.9652805328 
14.483147621 -3.0115399361 2.0285320282 14.759982109 -2.2169427872 2.9652805328 11.615965843 -4.1800961494 2.9652805328 
14.483147621 -3.0115399361 2.0285320282 11.615965843 -4.1800961494 2.9652805328 10.660237312 -5.3999114037 2.0285320282 
1.4604649544 -3.1652288437 -0.78171348572 0.76747989655 -1.2686567307 -0.78171348572 1.8705320358 -2.2169427872 -1.7184619904 
2.0586881638 -3.9892816544 0.15503501892 0.76747989655 -1.2686567307 -0.78171348572 1.4604649544 -3.1652288437 -0.78171348572 
0.53204488754 -1.2686567307 0.15503501892 0.76747989655 -1.2686567307 -0.78171348572 2.0586881638 -3.9892816544 0.15503501892 
2.0586881638 -3.9892816544 0.15503501892 2.2757759094 -3.1652288437 1.0917835236 0.53204488754 -1.2686567307 0.15503501892 
2.2757759094 -3.1652288437 1.0917835236 2.0586881638 -1.2686567307 1.5911312103 0.53204488754 -1.2686567307 0.15503501892 
3.9701433182 -4.1135149002 -1.6336326599 1.8705320358 -2.2169427872 -1.7184619904 3.9701433182 -2.2169427872 -2.4014949799 
7.7930545807 -0.32037067413 -3.2658205032 3.9701433182 -4.1135149002 -1.6336326599 3.9701433182 -2.2169427872 -2.4014949799 
7.7930545807 -3.1652288437 -2.1418600082 3.9701433182 -4.1135149002 -1.6336326599 7.7930545807 -0.32037067413 -3.2658205032 
10.660237312 -2.2169427872 -2.0208959579 7.7930545807 -3.1652288437 -2.1418600082 7.7930545807 -0.32037067413 -3.2658205032 
10.660237312 -4.1135149002 -0.73640632629 14.483147621 -1.4507846832 -0.78171348572 10.660237312 -4.9480576515 0.15503501892 
10.660237312 -4.9480576515 0.15503501892 14.483147621 -1.4507846832 -0.78171348572 15.438876152 -1.6162824631 0.15503501892 
10.660237312 -4.9480576515 0.15503501892 15.438876152 -2.1761398315 1.0917835236 10.660237312 -5.4135985374 1.0917835236 
10.660237312 -4.9480576515 0.15503501892 15.438876152 -1.6162824631 0.15503501892 15.438876152 -2.1761398315 1.0917835236 
15.438876152 -2.1761398315 1.0917835236 14.483147621 -3.0115399361 2.0285320282 10.660237312 -5.4135985374 1.0917835236 
2.2757759094 -3.1652288437 1.0917835236 4.9258708954 -0.32037067413 2.7843332291 2.0586881638 -1.2686567307 1.5911312103 
2.2757759094 -3.1652288437 1.0917835236 5.8815984726 -3.1652288437 2.9039783478 4.9258708954 -0.32037067413 2.7843332291 
4.9258708954 -0.32037067413 2.7843332291 5.8815984726 -3.1652288437 2.9039783478 6.8373270035 -2.2169427872 3.343873024 
6.8373270035 -2.2169427872 3.343873024 6.8373270035 -0.32037067413 3.3552770615 4.9258708954 -0.32037067413 2.7843332291 
11.615965843 -2.2169427872 3.8053827286 10.660237312 -0.32037067413 3.8936710358 6.8373270035 -2.2169427872 3.343873024 
10.660237312 -0.32037067413 3.8936710358 6.8373270035 -0.32037067413 3.3552770615 6.8373270035 -2.2169427872 3.343873024 
10.660237312 -2.2169427872 -2.0208959579 7.7930545807 -0.32037067413 -3.2658205032 10.660237312 0.62791442871 -3.232424736 
12.571692467 -0.32037067413 -2.3682870865 10.660237312 -2.2169427872 -2.0208959579 10.660237312 0.62791442871 -3.232424736 
10.660237312 -2.2169427872 -2.0208959579 12.571692467 -0.32037067413 -2.3682870865 14.483147621 -1.4507846832 -0.78171348572 
11.615965843 -2.2169427872 3.8053827286 13.527420998 -0.32037067413 3.8932495117 10.660237312 -0.32037067413 3.8936710358 
13.527420998 -2.2169427872 3.4841451645 13.527420998 -0.32037067413 3.8932495117 11.615965843 -2.2169427872 3.8053827286 
14.483147621 -3.0115399361 2.0285320282 15.438876152 -2.1761398315 1.0917835236 17.272357941 -0.32037067413 2.0285320282 
17.272357941 -0.32037067413 2.0285320282 14.759982109 -2.2169427872 2.9652805328 14.483147621 -3.0115399361 2.0285320282 
0.53204488754 -1.2686567307 0.15503501892 1.1029605865 0.62791442871 0.93071746826 0.76747989655 -1.2686567307 -0.78171348572 
2.0586881638 -1.2686567307 1.5911312103 2.0586881638 0.62791442871 1.6594467163 1.1029605865 0.62791442871 0.93071746826 
0.53204488754 -1.2686567307 0.15503501892 2.0586881638 -1.2686567307 1.5911312103 1.1029605865 0.62791442871 0.93071746826 
4.9258708954 -0.32037067413 2.7843332291 2.0586881638 0.62791442871 1.6594467163 2.0586881638 -1.2686567307 1.5911312103 
4.9258708954 1.5762004852 -3.308678627 3.9701433182 -2.2169427872 -2.4014949799 1.8705320358 -2.2169427872 -1.7184619904 
7.7930545807 -0.32037067413 -3.2658205032 3.9701433182 -2.2169427872 -2.4014949799 6.8373270035 1.5762004852 -3.7060041428 
14.759982109 -2.2169427872 2.9652805328 16.394603729 1.5762004852 3.3611040115 13.527420998 -2.2169427872 3.4841451645 
16.394603729 1.5762004852 3.3611040115 13.527420998 -0.32037067413 3.8932495117 13.527420998 -2.2169427872 3.4841451645 
14.759982109 -2.2169427872 2.9652805328 17.028572083 0.62791442871 2.9652805328 16.394603729 1.5762004852 3.3611040115 
14.759982109 -2.2169427872 2.9652805328 17.272357941 -0.32037067413 2.0285320282 17.028572083 0.62791442871 2.9652805328 
0.76747989655 -1.2686567307 -0.78171348572 1.1029605865 0.62791442871 0.93071746826 0.326628685 0.62791442871 0.15503501892 
0.326628685 0.62791442871 0.15503501892 1.546271801 0.62791442871 -1.7184619904 0.76747989655 -1.2686567307 -0.78171348572 
0.76747989655 -1.2686567307 -0.78171348572 1.546271801 0.62791442871 -1.7184619904 1.8705320358 -2.2169427872 -1.7184619904 
4.9258708954 1.5762004852 -3.308678627 1.8705320358 -2.2169427872 -1.7184619904 1.546271801 0.62791442871 -1.7184619904 
4.9258708954 -0.32037067413 2.7843332291 4.9258708954 1.5762004852 2.547246933 2.0586881638 0.62791442871 1.6594467163 
6.8373270035 1.5762004852 -3.7060041428 3.9701433182 -2.2169427872 -2.4014949799 4.9258708954 1.5762004852 -3.308678627 
[...]
CELL_DATA 664
FIELD FieldData 1
GroupIds 1 664 float
0 0 0 0 0 0 0 0 0 
0 0 0 0 0 0 0 0 0 
0 0 0 0 0 0 0 0 0 
0 0 0 0 0 0 0 0 0 
0 0 0 0 0 0 0 0 0 
0 0 0 0 0 0 0 0 0 
0 0 0 0 0 0 0 0 0 
0 0 0 0 0 0 0 0 0 
0 0 0 0 0 0 0 0 0 
0 0 0 0 0 0 0 0 0 
0 0 0 0 0 0 0 0 0 
0 0 0 0 0 0 0 0 0 
0 0 0 0 0 0 0 0 0 
0 0 0 0 0 0 0 0 0 
0 0 0 0 0 0 0 0 0 
0 0 0 0 0 0 0 0 0 
0 0 0 0 0 0 0 0 0 
0 0 0 0 0 0 0 0 0 
0 0 0 0 0 0 0 0 0 
0 0 0 0 0 0 0 0 0 
0 0 0 0 0 0 0 0 0 
0 0 0 0 0 0 0 0 0 
0 0 0 0 0 0 0 0 0 
0 0 0 0 0 0 0 0 0 
0 0 0 0 0 0 0 0 0 
0 0 0 0 0 0 0 0 0 
0 0 0 0 0 0 0 0 0 
0 0 0 0 0 0 0 0 0 
0 0 0 0 0 0 0 0 0 
0 0 0 0 0 0 0 0 0 
0 0 0 0 0 0 0 0 0 
0 0 0 0 0 0 0 0 0 
0 0 0 0 0 0 0 0 0 
0 0 0 0 0 0 0 0 0 
0 0 0 0 0 0 0 0 0 
0 0 0 0 0 0 0 0 0 
0 0 0 0 0 0 0 0 0 
0 0 0 0 0 0 0 0 0 
0 0 0 0 0 0 0 0 0 
0 0 0 0 0 0 0 0 0 
0 0 0 0 0 0 0 0 0 
0 0 0 0 0 0 0 0 0 
0 0 0 0 0 0 0 0 0 
0 0 0 0 0 0 0 0 0 
0 0 0 0 0 0 0 0 0 
0 0 0 0 0 0 0 0 0 
0 0 0 0 0 0 0 0 0 
0 0 0 0 0 0 0 0 0 
0 0 0 0 0 0 0 0 0 
0 0 0 0 0 0 0 0 0 
0 0 0 0 0 0 0 0 0 
0 0 0 0 0 0 0 0 0 
0 0 0 0 0 0 0 0 0 
0 0 0 0 0 0 0 0 0 
0 0 0 0 0 0 0 0 0 
0 0 0 0 0 0 0 0 0 
0 0 0 0 0 0 0 0 0 
0 0 0 0 0 0 0 0 0 
0 0 0 0 0 0 0 0 0 
0 0 0 0 0 0 0 0 0 
0 0 0 0 0 0 0 0 0 
0 0 0 0 0 0 0 0 0 
0 0 0 0 0 0 0 0 0 
0 0 0 0 0 0 0 0 0 
0 0 0 0 0 0 0 0 0 
0 0 0 0 0 0 0 0 0 
0 0 0 0 0 0 0 0 0 
0 0 0 0 0 0 0 0 0 
0 0 0 0 0 0 0 0 0 
0 0 0 0 0 0 0 0 0 
0 0 0 0 0 0 0 0 0 
0 0 0 0 0 0 0 0 0 
0 0 0 0 0 0 0 0 0 
0 0 0 0 0 0 0 
POINT_DATA 1992
NORMALS Normals float
-0.188345 -0.920205 0.343144 -0.188345 -0.920205 0.343144 -0.188345 -0.920205 0.343144 
-0.200516 -0.979668 -0.00668492 -0.200516 -0.979668 -0.00668492 -0.200516 -0.979668 -0.00668492 
-0.0969125 -0.639425 -0.762721 -0.0969125 -0.639425 -0.762721 -0.0969125 -0.639425 -0.762721 
-0.0580426 -0.828064 -0.557621 -0.0580426 -0.828064 -0.557621 -0.0580426 -0.828064 -0.557621 
-0.177585 -0.940047 -0.291163 -0.177585 -0.940047 -0.291163 -0.177585 -0.940047 -0.291163 
-0.171699 -0.908887 0.380059 -0.171699 -0.908887 0.380059 -0.171699 -0.908887 0.380059 
-0.311835 -0.661822 0.681726 -0.311835 -0.661822 0.681726 -0.311835 -0.661822 0.681726 
0.1832 -0.657078 -0.731222 0.1832 -0.657078 -0.731222 0.1832 -0.657078 -0.731222 
0.127196 -0.7527 -0.645959 0.127196 -0.7527 -0.645959 0.127196 -0.7527 -0.645959 
0.155543 -0.92045 -0.358578 0.155543 -0.92045 -0.358578 0.155543 -0.92045 -0.358578 
0.25497 -0.705893 -0.660837 0.25497 -0.705893 -0.660837 0.25497 -0.705893 -0.660837 
0.30776 -0.852044 -0.423445 0.30776 -0.852044 -0.423445 0.30776 -0.852044 -0.423445 
0.276323 -0.895511 -0.348863 0.276323 -0.895511 -0.348863 0.276323 -0.895511 -0.348863 
0.294819 -0.955451 0.0139604 0.294819 -0.955451 0.0139604 0.294819 -0.955451 0.0139604 
0.135149 -0.935369 0.326832 0.135149 -0.935369 0.326832 0.135149 -0.935369 0.326832 
0.0941657 -0.651724 0.752588 0.0941657 -0.651724 0.752588 0.0941657 -0.651724 0.752588 
0.12103 -0.691435 0.712229 0.12103 -0.691435 0.712229 0.12103 -0.691435 0.712229 
-0.449273 -0.57396 -0.684634 -0.449273 -0.57396 -0.684634 -0.449273 -0.57396 -0.684634 
-0.581574 -0.777073 -0.240685 -0.581574 -0.777073 -0.240685 -0.581574 -0.777073 -0.240685 
-0.590536 -0.754428 -0.28654 -0.590536 -0.754428 -0.28654 -0.590536 -0.754428 -0.28654 
-0.552441 -0.738147 0.38723 -0.552441 -0.738147 0.38723 -0.552441 -0.738147 0.38723 
0.00665893 -0.49309 -0.869953 0.00665893 -0.49309 -0.869953 0.00665893 -0.49309 -0.869953 
-0.373717 -0.439126 0.817009 -0.373717 -0.439126 0.817009 -0.373717 -0.439126 0.817009 
0.17684 -0.610053 -0.772375 0.17684 -0.610053 -0.772375 0.17684 -0.610053 -0.772375 
0.0410834 -0.393093 0.918581 0.0410834 -0.393093 0.918581 0.0410834 -0.393093 0.918581 
0.529807 -0.848028 0.0123908 0.529807 -0.848028 0.0123908 0.529807 -0.848028 0.0123908 
-0.444679 -0.524752 -0.725876 -0.444679 -0.524752 -0.725876 -0.444679 -0.524752 -0.725876 
-0.560285 -0.553195 0.616487 -0.560285 -0.553195 0.616487 -0.560285 -0.553195 0.616487 
-0.410513 -0.405318 0.816821 -0.410513 -0.405318 0.816821 -0.410513 -0.405318 0.816821 
-0.182432 -0.256448 0.949185 -0.182432 -0.256448 0.949185 -0.182432 -0.256448 0.949185 
-0.0935403 -0.230566 0.96855 -0.0935403 -0.230566 0.96855 -0.0935403 -0.230566 0.96855 
0.215232 -0.54762 -0.808571 0.215232 -0.54762 -0.808571 0.215232 -0.54762 -0.808571 
0.355846 -0.524058 -0.773781 0.355846 -0.524058 -0.773781 0.355846 -0.524058 -0.773781 
0.152695 -0.388811 0.908576 0.152695 -0.388811 0.908576 0.152695 -0.388811 0.908576 
0.32955 -0.527779 0.782845 0.32955 -0.527779 0.782845 0.32955 -0.527779 0.782845 
0.461525 -0.739138 0.490581 0.461525 -0.739138 0.490581 0.461525 -0.739138 0.490581 
0.461548 -0.738771 0.491112 0.461548 -0.738771 0.491112 0.461548 -0.738771 0.491112 
-0.748314 -0.273425 -0.604372 -0.748314 -0.273425 -0.604372 -0.748314 -0.273425 -0.604372 
-0.900165 -0.32891 0.28552 -0.900165 -0.32891 0.28552 -0.900165 -0.32891 0.28552 
-0.851861 -0.478011 -0.2141 -0.851861 -0.478011 -0.2141 -0.851861 -0.478011 -0.2141 
-0.737001 -0.413558 0.534602 -0.737001 -0.413558 0.534602 -0.737001 -0.413558 0.534602 
-0.661456 -0.260847 0.703161 -0.661456 -0.260847 0.703161 -0.661456 -0.260847 0.703161 
-0.288698 -0.359298 -0.887445 -0.288698 -0.359298 -0.887445 -0.288698 -0.359298 -0.887445 
-0.0233823 -0.375175 -0.926659 -0.0233823 -0.375175 -0.926659 -0.0233823 -0.375175 -0.926659 
-0.0324789 -0.367253 -0.929554 -0.0324789 -0.367253 -0.929554 -0.0324789 -0.367253 -0.929554 
0.158728 -0.362788 -0.918254 0.158728 -0.362788 -0.918254 0.158728 -0.362788 -0.918254 
0.447481 -0.652853 -0.611183 0.447481 -0.652853 -0.611183 0.447481 -0.652853 -0.611183 
0.462284 -0.663037 -0.588791 0.462284 -0.663037 -0.588791 0.462284 -0.663037 -0.588791 
0.518698 -0.765622 -0.380495 0.518698 -0.765622 -0.380495 0.518698 -0.765622 -0.380495 
0.513537 -0.736546 -0.440204 0.513537 -0.736546 -0.440204 0.513537 -0.736546 -0.440204 
0.553308 -0.816707 -0.163828 0.553308 -0.816707 -0.163828 0.553308 -0.816707 -0.163828 
-0.290627 -0.274594 0.916588 -0.290627 -0.274594 0.916588 -0.290627 -0.274594 0.916588 
-0.446199 -0.112561 0.887827 -0.446199 -0.112561 0.887827 -0.446199 -0.112561 0.887827 
-0.35126 -0.0787683 0.932959 -0.35126 -0.0787683 0.932959 -0.35126 -0.0787683 0.932959 
-0.286196 -0.00576135 0.958154 -0.286196 -0.00576135 0.958154 -0.286196 -0.00576135 0.958154 
-0.0957015 -0.0943555 0.990928 -0.0957015 -0.0943555 0.990928 -0.0957015 -0.0943555 0.990928 
-0.139455 -0.00595411 0.990211 -0.139455 -0.00595411 0.990211 -0.139455 -0.00595411 0.990211 
0.138944 -0.388015 -0.91112 0.138944 -0.388015 -0.91112 0.138944 -0.388015 -0.91112 
0.216309 -0.382539 -0.898262 0.216309 -0.382539 -0.898262 0.216309 -0.382539 -0.898262 
0.35608 -0.503111 -0.787455 0.35608 -0.503111 -0.787455 0.35608 -0.503111 -0.787455 
0.000146858 -0.0464273 0.998922 0.000146858 -0.0464273 0.998922 0.000146858 -0.0464273 0.998922 
0.162108 -0.208068 0.964587 0.162108 -0.208068 0.964587 0.162108 -0.208068 0.964587 
0.69281 -0.718049 0.0664849 0.69281 -0.718049 0.0664849 0.69281 -0.718049 0.0664849 
0.643515 -0.666959 0.375572 0.643515 -0.666959 0.375572 0.643515 -0.666959 0.375572 
-0.903052 0.364669 -0.226966 -0.903052 0.364669 -0.226966 -0.903052 0.364669 -0.226966 
-0.606087 -0.0286321 0.794883 -0.606087 -0.0286321 0.794883 -0.606087 -0.0286321 0.794883 
-0.682317 -0.0912627 0.725338 -0.682317 -0.0912627 0.725338 -0.682317 -0.0912627 0.725338 
-0.374572 -0.0333765 0.926597 -0.374572 -0.0333765 0.926597 -0.374572 -0.0333765 0.926597 
-0.305957 -0.147843 -0.940496 -0.305957 -0.147843 -0.940496 -0.305957 -0.147843 -0.940496 
-0.0852296 -0.265818 -0.960248 -0.0852296 -0.265818 -0.960248 -0.0852296 -0.265818 -0.960248 
0.375193 -0.254692 0.89127 0.375193 -0.254692 0.89127 0.375193 -0.254692 0.89127 
0.305556 -0.200773 0.930766 0.305556 -0.200773 0.930766 0.305556 -0.200773 0.930766 
0.267542 -0.213347 0.93963 0.267542 -0.213347 0.93963 0.267542 -0.213347 0.93963 
0.60025 -0.47866 0.640769 0.60025 -0.47866 0.640769 0.60025 -0.47866 0.640769 
-0.62871 -0.456932 0.629236 -0.62871 -0.456932 0.629236 -0.62871 -0.456932 0.629236 
-0.835735 0.0744577 -0.544062 -0.835735 0.0744577 -0.544062 -0.835735 0.0744577 -0.544062 
-0.683402 -0.077895 -0.725874 -0.683402 -0.077895 -0.725874 -0.683402 -0.077895 -0.725874 
-0.4144 -0.0472338 -0.908868 -0.4144 -0.0472338 -0.908868 -0.4144 -0.0472338 -0.908868 
-0.3289 0.117141 0.937071 -0.3289 0.117141 0.937071 -0.3289 0.117141 0.937071 
-0.200195 -0.179897 -0.963099 -0.200195 -0.179897 -0.963099 -0.200195 -0.179897 -0.963099 
0.000145825 0.127014 0.991901 0.000145825 0.127014 0.991901 0.000145825 0.127014 0.991901 
0.406063 -0.438602 -0.801711 0.406063 -0.438602 -0.801711 0.406063 -0.438602 -0.801711 
0.705818 -0.608069 -0.363419 0.705818 -0.608069 -0.363419 0.705818 -0.608069 -0.363419 
0.744326 -0.641245 -0.186504 0.744326 -0.641245 -0.186504 0.744326 -0.641245 -0.186504 
-0.657956 0.299168 -0.69108 -0.657956 0.299168 -0.69108 -0.657956 0.299168 -0.69108 
-0.808913 0.261439 -0.526601 -0.808913 0.261439 -0.526601 -0.808913 0.261439 -0.526601 
-0.28417 0.118929 0.951369 -0.28417 0.118929 0.951369 -0.28417 0.118929 0.951369 
0.0827678 -0.185545 -0.979144 0.0827678 -0.185545 -0.979144 0.0827678 -0.185545 -0.979144 
0.0704366 -0.178405 -0.981433 0.0704366 -0.178405 -0.981433 0.0704366 -0.178405 -0.981433 
-0.137264 0.17667 0.974652 -0.137264 0.17667 0.974652 -0.137264 0.17667 0.974652 
-0.097338 0.190582 0.976834 -0.097338 0.190582 0.976834 -0.097338 0.190582 0.976834 
0.0522195 0.144033 0.988194 0.0522195 0.144033 0.988194 0.0522195 0.144033 0.988194 
0.26503 -0.300652 -0.91617 0.26503 -0.300652 -0.91617 0.26503 -0.300652 -0.91617 
0.124049 0.0897414 0.98821 0.124049 0.0897414 0.98821 0.124049 0.0897414 0.98821 
0.45013 -0.445884 -0.773673 0.45013 -0.445884 -0.773673 0.45013 -0.445884 -0.773673 
0.541539 -0.536431 -0.647284 0.541539 -0.536431 -0.647284 0.541539 -0.536431 -0.647284 
0.701021 -0.594096 -0.394487 0.701021 -0.594096 -0.394487 0.701021 -0.594096 -0.394487 
0.786716 -0.319517 0.528192 0.786716 -0.319517 0.528192 0.786716 -0.319517 0.528192 
0.772502 -0.446657 0.451374 0.772502 -0.446657 0.451374 0.772502 -0.446657 0.451374 
-0.690446 0.213942 0.691024 -0.690446 0.213942 0.691024 -0.690446 0.213942 0.691024 
-0.597573 0.169399 0.783716 -0.597573 0.169399 0.783716 -0.597573 0.169399 0.783716 
-0.356898 0.231919 0.904896 -0.356898 0.231919 0.904896 -0.356898 0.231919 0.904896 
-0.426822 0.00465857 -0.904324 -0.426822 0.00465857 -0.904324 -0.426822 0.00465857 -0.904324 
-0.155338 0.250557 0.955558 -0.155338 0.250557 0.955558 -0.155338 0.250557 0.955558 
-0.202464 -0.101509 -0.974015 -0.202464 -0.101509 -0.974015 -0.202464 -0.101509 -0.974015 
-0.199092 0.238039 0.950631 -0.199092 0.238039 0.950631 -0.199092 0.238039 0.950631 
0.468037 -0.0552448 0.88198 0.468037 -0.0552448 0.88198 0.468037 -0.0552448 0.88198 
-0.884336 0.465978 -0.0285564 -0.884336 0.465978 -0.0285564 -0.884336 0.465978 -0.0285564 
-0.79236 0.417513 0.444802 -0.79236 0.417513 0.444802 -0.79236 0.417513 0.444802 
-0.643578 0.0625631 -0.762819 -0.643578 0.0625631 -0.762819 -0.643578 0.0625631 -0.762819 
-0.66661 0.482131 0.56849 -0.66661 0.482131 0.56849 -0.66661 0.482131 0.56849 
-0.325172 0.314633 0.891779 -0.325172 0.314633 0.891779 -0.325172 0.314633 0.891779 
-0.391057 0.00474115 -0.920354 -0.391057 0.00474115 -0.920354 -0.391057 0.00474115 -0.920354 
-0.31695 0.320646 0.892597 -0.31695 0.320646 0.892597 -0.31695 0.320646 0.892597 
-0.0413242 -0.0202933 -0.99894 -0.0413242 -0.0202933 -0.99894 -0.0413242 -0.0202933 -0.99894 
0.148978 -0.176854 -0.972897 0.148978 -0.176854 -0.972897 0.148978 -0.176854 -0.972897 
0.388612 -0.534814 -0.750303 0.388612 -0.534814 -0.750303 0.388612 -0.534814 -0.750303 
0.393013 0.0831625 0.915765 0.393013 0.0831625 0.915765 0.393013 0.0831625 0.915765 
0.73317 -0.457904 0.502778 0.73317 -0.457904 0.502778 0.73317 -0.457904 0.502778 
-0.153179 0.38074 0.911907 -0.153179 0.38074 0.911907 -0.153179 0.38074 0.911907 
-0.0915671 0.383668 0.91892 -0.0915671 0.383668 0.91892 -0.0915671 0.383668 0.91892 
0.258538 -0.285896 -0.922725 0.258538 -0.285896 -0.922725 0.258538 -0.285896 -0.922725 
0.675377 -0.610906 -0.41311 0.675377 -0.610906 -0.41311 0.675377 -0.610906 -0.41311 
0.676144 -0.616958 -0.40273 0.676144 -0.616958 -0.40273 0.676144 -0.616958 -0.40273 
0.582379 0.0140827 0.812795 0.582379 0.0140827 0.812795 0.582379 0.0140827 0.812795 
0.825414 -0.515515 0.230078 0.825414 -0.515515 0.230078 0.825414 -0.515515 0.230078 
-0.731692 0.350086 -0.584865 -0.731692 0.350086 -0.584865 -0.731692 0.350086 -0.584865 
-0.703528 0.689951 0.170342 -0.703528 0.689951 0.170342 -0.703528 0.689951 0.170342 
-0.814474 0.572537 -0.0939888 -0.814474 0.572537 -0.0939888 -0.814474 0.572537 -0.0939888 
-0.645063 0.632614 0.428594 -0.645063 0.632614 0.428594 -0.645063 0.632614 0.428594 
-0.269365 0.555416 0.786738 -0.269365 0.555416 0.786738 -0.269365 0.555416 0.786738 
-0.24721 0.468139 0.848371 -0.24721 0.468139 0.848371 -0.24721 0.468139 0.848371 
-0.213156 0.19966 -0.9564 -0.213156 0.19966 -0.9564 -0.213156 0.19966 -0.9564 
-0.173561 0.475802 0.862258 -0.173561 0.475802 0.862258 -0.173561 0.475802 0.862258 
-0.0654073 0.102523 -0.992578 -0.0654073 0.102523 -0.992578 -0.0654073 0.102523 -0.992578 
0.150975 0.0716464 -0.985938 0.150975 0.0716464 -0.985938 0.150975 0.0716464 -0.985938 
-0.0836468 0.393665 0.91544 -0.0836468 0.393665 0.91544 -0.0836468 0.393665 0.91544 
0.0184586 0.270894 0.962432 0.0184586 0.270894 0.962432 0.0184586 0.270894 0.962432 
0.158789 0.267502 0.950383 0.158789 0.267502 0.950383 0.158789 0.267502 0.950383 
0.394329 0.0159199 0.918832 0.394329 0.0159199 0.918832 0.394329 0.0159199 0.918832 
-0.512291 0.516108 -0.686433 -0.512291 0.516108 -0.686433 -0.512291 0.516108 -0.686433 
-0.344037 0.3466 -0.872644 -0.344037 0.3466 -0.872644 -0.344037 0.3466 -0.872644 
-0.158903 0.731432 0.663141 -0.158903 0.731432 0.663141 -0.158903 0.731432 0.663141 
-0.297071 0.334471 -0.894359 -0.297071 0.334471 -0.894359 -0.297071 0.334471 -0.894359 
-0.195681 0.742389 0.640755 -0.195681 0.742389 0.640755 -0.195681 0.742389 0.640755 
-0.0123192 0.180922 -0.98342 -0.0123192 0.180922 -0.98342 -0.0123192 0.180922 -0.98342 
-0.156117 0.517545 0.841293 -0.156117 0.517545 0.841293 -0.156117 0.517545 0.841293 
0.210722 -0.367507 -0.905834 0.210722 -0.367507 -0.905834 0.210722 -0.367507 -0.905834 
0.173392 -0.356297 -0.918143 0.173392 -0.356297 -0.918143 0.173392 -0.356297 -0.918143 
0.723179 -0.558998 -0.405628 0.723179 -0.558998 -0.405628 0.723179 -0.558998 -0.405628 
0.912004 -0.39088 0.124347 0.912004 -0.39088 0.124347 0.912004 -0.39088 0.124347 
0.890379 -0.381612 0.248187 0.890379 -0.381612 0.248187 0.890379 -0.381612 0.248187 
-0.464703 0.859654 0.21224 -0.464703 0.859654 0.21224 -0.464703 0.859654 0.21224 
-0.448093 0.82717 -0.33912 -0.448093 0.82717 -0.33912 -0.448093 0.82717 -0.33912 
-0.465277 0.858892 0.214063 -0.465277 0.858892 0.214063 -0.465277 0.858892 0.214063 
-0.180947 0.728616 0.660588 -0.180947 0.728616 0.660588 -0.180947 0.728616 0.660588 
0.143186 0.915726 -0.375426 0.143186 0.915726 -0.375426 0.143186 0.915726 -0.375426 
-0.10663 0.630267 -0.769021 -0.10663 0.630267 -0.769021 -0.10663 0.630267 -0.769021 
-0.186548 0.780289 0.59695 -0.186548 0.780289 0.59695 -0.186548 0.780289 0.59695 
-0.0870521 0.420317 0.903192 -0.0870521 0.420317 0.903192 -0.0870521 0.420317 0.903192 
0.377114 -0.492416 -0.784418 0.377114 -0.492416 -0.784418 0.377114 -0.492416 -0.784418 
0.552746 -0.0132686 0.833244 0.552746 -0.0132686 0.833244 0.552746 -0.0132686 0.833244 
0.903887 -0.413358 0.110102 0.903887 -0.413358 0.110102 0.903887 -0.413358 0.110102 
-0.114907 0.80446 -0.582787 -0.114907 0.80446 -0.582787 -0.114907 0.80446 -0.582787 
-0.139115 0.97394 0.179129 -0.139115 0.97394 0.179129 -0.139115 0.97394 0.179129 
-0.149327 0.959438 0.239122 -0.149327 0.959438 0.239122 -0.149327 0.959438 0.239122 
-0.130969 0.841491 0.524156 -0.130969 0.841491 0.524156 -0.130969 0.841491 0.524156 
-0.322484 0.886059 -0.333022 -0.322484 0.886059 -0.333022 -0.322484 0.886059 -0.333022 
-0.212813 0.890151 0.402916 -0.212813 0.890151 0.402916 -0.212813 0.890151 0.402916 
-0.352494 0.776849 0.521779 -0.352494 0.776849 0.521779 -0.352494 0.776849 0.521779 
-0.419818 0.32245 -0.848398 -0.419818 0.32245 -0.848398 -0.419818 0.32245 -0.848398 
-0.0833604 -0.0860106 -0.992801 -0.0833604 -0.0860106 -0.992801 -0.0833604 -0.0860106 -0.992801 
0.160034 0.26428 0.951076 0.160034 0.26428 0.951076 0.160034 0.26428 0.951076 
0.422636 -0.481853 -0.767591 0.422636 -0.481853 -0.767591 0.422636 -0.481853 -0.767591 
0.527727 -0.4844 -0.697754 0.527727 -0.4844 -0.697754 0.527727 -0.4844 -0.697754 
0.708063 -0.547314 -0.446199 0.708063 -0.547314 -0.446199 0.708063 -0.547314 -0.446199 
-0.418457 0.799701 -0.430549 -0.418457 0.799701 -0.430549 -0.418457 0.799701 -0.430549 
-0.457594 0.874493 0.160839 -0.457594 0.874493 0.160839 -0.457594 0.874493 0.160839 
-0.396136 0.873032 0.284414 -0.396136 0.873032 0.284414 -0.396136 0.873032 0.284414 
-0.460327 0.782868 0.418589 -0.460327 0.782868 0.418589 -0.460327 0.782868 0.418589 
-0.314913 0.535565 0.783581 -0.314913 0.535565 0.783581 -0.314913 0.535565 0.783581 
-0.0995543 0.010623 -0.994975 -0.0995543 0.010623 -0.994975 -0.0995543 0.010623 -0.994975 
0.167881 -0.400148 -0.900943 0.167881 -0.400148 -0.900943 0.167881 -0.400148 -0.900943 
0.238834 -0.394163 -0.887465 0.238834 -0.394163 -0.887465 0.238834 -0.394163 -0.887465 
0.507455 0.144219 0.849524 0.507455 0.144219 0.849524 0.507455 0.144219 0.849524 
0.358223 0.0386632 0.932835 0.358223 0.0386632 0.932835 0.358223 0.0386632 0.932835 
0.83406 -0.477844 -0.2757 0.83406 -0.477844 -0.2757 0.83406 -0.477844 -0.2757 
0.849635 -0.486767 0.202923 0.849635 -0.486767 0.202923 0.849635 -0.486767 0.202923 
0.68935 0.00108452 0.724427 0.68935 0.00108452 0.724427 0.68935 0.00108452 0.724427 
-0.445989 0.427409 -0.786394 -0.445989 0.427409 -0.786394 -0.445989 0.427409 -0.786394 
-0.721976 0.691898 -0.00529013 -0.721976 0.691898 -0.00529013 -0.721976 0.691898 -0.00529013 
-0.349785 0.538822 0.766369 -0.349785 0.538822 0.766369 -0.349785 0.538822 0.766369 
-0.105277 0.40483 0.908311 -0.105277 0.40483 0.908311 -0.105277 0.40483 0.908311 
0.826839 0.526631 0.197478 0.826839 0.526631 0.197478 0.826839 0.526631 0.197478 
-0.740896 0.663173 -0.106183 -0.740896 0.663173 -0.106183 -0.740896 0.663173 -0.106183 
-0.72812 0.651737 0.212321 -0.72812 0.651737 0.212321 -0.72812 0.651737 0.212321 
-0.87057 0.242042 -0.428397 -0.87057 0.242042 -0.428397 -0.87057 0.242042 -0.428397 
-0.45395 0.535203 0.712381 -0.45395 0.535203 0.712381 -0.45395 0.535203 0.712381 
-0.0182517 0.394624 0.918662 -0.0182517 0.394624 0.918662 -0.0182517 0.394624 0.918662 
0.565314 -0.451008 -0.690661 0.565314 -0.451008 -0.690661 0.565314 -0.451008 -0.690661 
0.880677 -0.406368 -0.243459 0.880677 -0.406368 -0.243459 0.880677 -0.406368 -0.243459 
0.96425 -0.262881 0.0334125 0.96425 -0.262881 0.0334125 0.96425 -0.262881 0.0334125 
0.780682 -0.212835 0.587569 0.780682 -0.212835 0.587569 0.780682 -0.212835 0.587569 
-0.89316 0.448424 -0.0343824 -0.89316 0.448424 -0.0343824 -0.89316 0.448424 -0.0343824 
-0.772039 0.387613 0.503698 -0.772039 0.387613 0.503698 -0.772039 0.387613 0.503698 
-0.530326 0.147445 -0.834874 -0.530326 0.147445 -0.834874 -0.530326 0.147445 -0.834874 
-0.177726 -0.281099 -0.943079 -0.177726 -0.281099 -0.943079 -0.177726 -0.281099 -0.943079 
-0.0712696 -0.259308 -0.963161 -0.0712696 -0.259308 -0.963161 -0.0712696 -0.259308 -0.963161 
-0.0246267 0.378572 0.925244 -0.0246267 0.378572 0.925244 -0.0246267 0.378572 0.925244 
0.350394 0.211336 0.912448 0.350394 0.211336 0.912448 0.350394 0.211336 0.912448 
0.802642 -0.596093 -0.0209639 0.802642 -0.596093 -0.0209639 0.802642 -0.596093 -0.0209639 
-0.352782 0.544218 0.761164 -0.352782 0.544218 0.761164 -0.352782 0.544218 0.761164 
-0.481128 0.449168 0.752837 -0.481128 0.449168 0.752837 -0.481128 0.449168 0.752837 