# vtk DataFile Version 4.2
3D Slicer output. SPACE=LPS
ASCII
DATASET POLYDATA
POINTS 2124 double
7.0423226357 -5.3350009918 1.0484895706 6.0459456444 -4.5671167374 3.0553741455 5.0495686531 -5.2800331116 1.0484895706 
6.0459456444 -4.5671167374 3.0553741455 7.0423226357 -5.3350009918 1.0484895706 8.0387001038 -5.4599432945 2.0519313812 
3.0568151474 -4.2690587044 0.04504776001 5.0495686531 -3.9053630829 -0.9583940506 5.0495686531 -5.2800331116 1.0484895706 
5.0495686531 -5.2800331116 1.0484895706 5.0495686531 -3.9053630829 -0.9583940506 7.0423226357 -4.5842700005 0.04504776001 
7.0423226357 -4.5842700005 0.04504776001 7.0423226357 -5.3350009918 1.0484895706 5.0495686531 -5.2800331116 1.0484895706 
6.0459456444 -4.5671167374 3.0553741455 2.4381341934 -3.5129384995 1.0484895706 5.0495686531 -5.2800331116 1.0484895706 
7.0423226357 -4.5842700005 0.04504776001 10.031452179 -4.586596489 2.0519313812 7.0423226357 -5.3350009918 1.0484895706 
7.0423226357 -5.3350009918 1.0484895706 10.031452179 -4.586596489 2.0519313812 8.0387001038 -5.4599432945 2.0519313812 
8.0387001038 -5.4599432945 2.0519313812 9.0350761414 -4.9489965439 4.0588159561 6.0459456444 -4.5671167374 3.0553741455 
10.031452179 -4.586596489 2.0519313812 9.0350761414 -4.9489965439 4.0588159561 8.0387001038 -5.4599432945 2.0519313812 
11.027830124 -4.4832577705 4.0588159561 9.0350761414 -4.9489965439 4.0588159561 10.031452179 -4.586596489 2.0519313812 
9.0350761414 -4.9489965439 4.0588159561 11.027830124 -4.4832577705 4.0588159561 11.027830124 -3.5129384995 5.603887558 
3.0568151474 -4.2690587044 0.04504776001 5.0495686531 -5.2800331116 1.0484895706 2.4381341934 -3.5129384995 1.0484895706 
2.0604381561 -2.9058437347 -0.9583940506 3.0568151474 -4.2690587044 0.04504776001 2.4381341934 -3.5129384995 1.0484895706 
3.0568151474 -2.5158662796 -1.5777225494 5.0495686531 -2.5158662796 -1.6449642181 3.0568151474 -4.2690587044 0.04504776001 
3.0568151474 -4.2690587044 0.04504776001 5.0495686531 -2.5158662796 -1.6449642181 5.0495686531 -3.9053630829 -0.9583940506 
2.4381341934 -3.5129384995 1.0484895706 6.0459456444 -4.5671167374 3.0553741455 2.0604381561 -1.5187940598 1.8492136002 
8.0387001038 -3.5129384995 4.9190225601 6.0459456444 -4.5671167374 3.0553741455 9.0350761414 -4.9489965439 4.0588159561 
10.031452179 -4.586596489 2.0519313812 7.0423226357 -4.5842700005 0.04504776001 12.024206161 -2.9879961014 2.0519313812 
11.027830124 -3.5129384995 5.603887558 8.0387001038 -3.5129384995 4.9190225601 9.0350761414 -4.9489965439 4.0588159561 
12.024206161 -2.9879961014 2.0519313812 11.027830124 -4.4832577705 4.0588159561 10.031452179 -4.586596489 2.0519313812 
15.013336182 -0.8434715271 6.065700531 11.027830124 -3.5129384995 5.603887558 11.027830124 -4.4832577705 4.0588159561 
2.0604381561 -2.9058437347 -0.9583940506 2.4381341934 -3.5129384995 1.0484895706 1.2893414497 -1.5187940598 1.0484895706 
0.20320081711 -0.5217218399 0.04504776001 2.0604381561 -2.9058437347 -0.9583940506 1.2893414497 -1.5187940598 1.0484895706 
3.0568151474 -4.2690587044 0.04504776001 2.0604381561 -2.9058437347 -0.9583940506 3.0568151474 -2.5158662796 -1.5777225494 
2.4381341934 -3.5129384995 1.0484895706 2.0604381561 -1.5187940598 1.8492136002 1.2893414497 -1.5187940598 1.0484895706 
2.0604381561 -1.5187940598 1.8492136002 6.0459456444 -4.5671167374 3.0553741455 8.0387001038 -3.5129384995 4.9190225601 
9.0350761414 -1.5187940598 -1.0495014191 7.0423226357 -4.5842700005 0.04504776001 5.0495686531 -3.9053630829 -0.9583940506 
7.0423226357 -4.5842700005 0.04504776001 9.0350761414 -1.5187940598 -1.0495014191 12.024206161 -1.5187940598 0.7449798584 
12.024206161 -1.5187940598 0.7449798584 12.024206161 -2.9879961014 2.0519313812 7.0423226357 -4.5842700005 0.04504776001 
11.027830124 -3.5129384995 5.603887558 10.031452179 -2.5158662796 5.9787635803 8.0387001038 -3.5129384995 4.9190225601 
12.024206161 -2.9879961014 2.0519313812 14.787511826 -1.5187940598 4.0588159561 11.027830124 -4.4832577705 4.0588159561 
15.292001724 -0.5217218399 3.0553741455 14.787511826 -1.5187940598 4.0588159561 12.024206161 -2.9879961014 2.0519313812 
14.787511826 -1.5187940598 4.0588159561 15.013336182 -0.8434715271 6.065700531 11.027830124 -4.4832577705 4.0588159561 
0.20320081711 -0.5217218399 0.04504776001 2.0604381561 0.47535037994 -1.9900455475 2.0604381561 -2.9058437347 -0.9583940506 
3.0568151474 -2.5158662796 -1.5777225494 2.0604381561 -2.9058437347 -0.9583940506 2.0604381561 0.47535037994 -1.9900455475 
5.0495686531 -2.5158662796 -1.6449642181 3.0568151474 -2.5158662796 -1.5777225494 6.0459456444 1.4724216461 -2.5905475616 
8.0387001038 -3.5129384995 4.9190225601 7.0423226357 -0.5217218399 5.1205348969 2.0604381561 -1.5187940598 1.8492136002 
9.0350761414 -1.5187940598 -1.0495014191 5.0495686531 -3.9053630829 -0.9583940506 5.0495686531 -2.5158662796 -1.6449642181 
16.009714127 -0.45537376404 5.0622577667 15.013336182 -0.8434715271 6.065700531 14.787511826 -1.5187940598 4.0588159561 
1.2893414497 -1.5187940598 1.0484895706 1.9060487747 0.47535037994 2.0519313812 0.20320081711 -0.5217218399 0.04504776001 
1.2893414497 -1.5187940598 1.0484895706 2.0604381561 -1.5187940598 1.8492136002 1.9060487747 0.47535037994 2.0519313812 
3.0568151474 -2.5158662796 -1.5777225494 2.0604381561 0.47535037994 -1.9900455475 4.0531916618 1.4724216461 -2.4829893112 
6.0459456444 1.4724216461 -2.5905475616 3.0568151474 -2.5158662796 -1.5777225494 4.0531916618 1.4724216461 -2.4829893112 
1.9060487747 0.47535037994 2.0519313812 2.0604381561 -1.5187940598 1.8492136002 7.0423226357 -0.5217218399 5.1205348969 
10.031452179 -2.5158662796 5.9787635803 7.0423226357 -0.5217218399 5.1205348969 8.0387001038 -3.5129384995 4.9190225601 
10.031452179 -2.5158662796 5.9787635803 11.027830124 0.47535037994 6.6068878174 7.0423226357 -0.5217218399 5.1205348969 
12.024206161 -1.5187940598 0.7449798584 15.013336182 1.4724216461 1.0281562805 12.024206161 -2.9879961014 2.0519313812 
15.013336182 -0.8434715271 6.065700531 15.013336182 0.47535037994 6.8319120407 11.027830124 -3.5129384995 5.603887558 
11.027830124 -3.5129384995 5.603887558 15.013336182 0.47535037994 6.8319120407 10.031452179 -2.5158662796 5.9787635803 
12.024206161 -2.9879961014 2.0519313812 15.013336182 1.4724216461 1.0281562805 15.292001724 -0.5217218399 3.0553741455 
15.824464798 -0.5217218399 4.0588159561 14.787511826 -1.5187940598 4.0588159561 15.292001724 -0.5217218399 3.0553741455 
16.009714127 -0.45537376404 5.0622577667 14.787511826 -1.5187940598 4.0588159561 15.824464798 -0.5217218399 4.0588159561 
17.226419449 1.4724216461 6.065700531 15.013336182 -0.8434715271 6.065700531 16.009714127 -0.45537376404 5.0622577667 
15.013336182 -0.8434715271 6.065700531 17.226419449 1.4724216461 6.065700531 15.013336182 0.47535037994 6.8319120407 
8.0387001038 2.469493866 -2.6561422348 5.0495686531 -2.5158662796 -1.6449642181 6.0459456444 1.4724216461 -2.5905475616 
10.031452179 2.469493866 -2.0932741165 5.0495686531 -2.5158662796 -1.6449642181 8.0387001038 2.469493866 -2.6561422348 
10.031452179 2.469493866 -2.0932741165 9.0350761414 -1.5187940598 -1.0495014191 5.0495686531 -2.5158662796 -1.6449642181 
14.016960144 2.469493866 -0.21071434021 12.024206161 -1.5187940598 0.7449798584 9.0350761414 -1.5187940598 -1.0495014191 
14.016960144 1.4724216461 7.0857543945 11.027830124 0.47535037994 6.6068878174 10.031452179 -2.5158662796 5.9787635803 
15.013336182 0.47535037994 6.8319120407 14.016960144 1.4724216461 7.0857543945 10.031452179 -2.5158662796 5.9787635803 
0.20320081711 -0.5217218399 0.04504776001 0.74700784683 2.469493866 0.04504776001 1.3286066055 3.4665660858 -0.9583940506 
0.20320081711 -0.5217218399 0.04504776001 1.9060487747 0.47535037994 2.0519313812 0.74700784683 2.469493866 0.04504776001 
0.20320081711 -0.5217218399 0.04504776001 1.3286066055 3.4665660858 -0.9583940506 2.0604381561 0.47535037994 -1.9900455475 
6.0459456444 2.469493866 4.2906370163 1.9060487747 0.47535037994 2.0519313812 7.0423226357 -0.5217218399 5.1205348969 
6.0459456444 1.4724216461 -2.5905475616 4.0531916618 1.4724216461 -2.4829893112 7.0423226357 5.4607105255 -3.0655531883 
14.016960144 2.469493866 -0.21071434021 9.0350761414 -1.5187940598 -1.0495014191 10.031452179 2.469493866 -2.0932741165 
14.016960144 1.4724216461 7.0857543945 12.024206161 3.4665660858 6.5509681702 11.027830124 0.47535037994 6.6068878174 
14.016960144 2.469493866 -0.21071434021 15.013336182 1.4724216461 1.0281562805 12.024206161 -1.5187940598 0.7449798584 
14.016960144 1.4724216461 7.0857543945 15.013336182 0.47535037994 6.8319120407 16.009714127 2.469493866 7.0985174179 
15.013336182 0.47535037994 6.8319120407 17.006090164 2.469493866 6.7728805542 16.009714127 2.469493866 7.0985174179 
15.013336182 0.47535037994 6.8319120407 17.226419449 1.4724216461 6.065700531 17.006090164 2.469493866 6.7728805542 
15.292001724 -0.5217218399 3.0553741455 15.013336182 1.4724216461 1.0281562805 18.858520508 4.4636383057 3.0553741455 
19.320825577 4.4636383057 4.0588159561 15.824464798 -0.5217218399 4.0588159561 18.858520508 4.4636383057 3.0553741455 
15.824464798 -0.5217218399 4.0588159561 15.292001724 -0.5217218399 3.0553741455 18.858520508 4.4636383057 3.0553741455 
15.824464798 -0.5217218399 4.0588159561 19.398206711 4.4636383057 5.0622577667 16.009714127 -0.45537376404 5.0622577667 
19.320825577 4.4636383057 4.0588159561 19.398206711 4.4636383057 5.0622577667 15.824464798 -0.5217218399 4.0588159561 
19.398206711 4.4636383057 5.0622577667 17.226419449 1.4724216461 6.065700531 16.009714127 -0.45537376404 5.0622577667 
1.3286066055 3.4665660858 -0.9583940506 3.9032511711 6.4577827454 -1.961836338 2.0604381561 0.47535037994 -1.9900455475 
7.0423226357 -0.5217218399 5.1205348969 12.024206161 3.4665660858 6.5509681702 6.0459456444 2.469493866 4.2906370163 
11.027830124 0.47535037994 6.6068878174 12.024206161 3.4665660858 6.5509681702 7.0423226357 -0.5217218399 5.1205348969 
[...]
CELL_DATA 708
FIELD FieldData 1
GroupIds 1 708 float
0 0 0 0 0 0 0 0 0 
0 0 0 0 0 0 0 0 0 
0 0 0 0 0 0 0 0 0 
0 0 0 0 0 0 0 0 0 
0 0 0 0 0 0 0 0 0 
0 0 0 0 0 0 0 0 0 
0 0 0 0 0 0 0 0 0 
0 0 0 0 0 0 0 0 0 
0 0 0 0 0 0 0 0 0 
0 0 0 0 0 0 0 0 0 
0 0 0 0 0 0 0 0 0 
0 0 0 0 0 0 0 0 0 
0 0 0 0 0 0 0 0 0 
0 0 0 0 0 0 0 0 0 
0 0 0 0 0 0 0 0 0 
0 0 0 0 0 0 0 0 0 
0 0 0 0 0 0 0 0 0 
0 0 0 0 0 0 0 0 0 
0 0 0 0 0 0 0 0 0 
0 0 0 0 0 0 0 0 0 
0 0 0 0 0 0 0 0 0 
0 0 0 0 0 0 0 0 0 
0 0 0 0 0 0 0 0 0 
0 0 0 0 0 0 0 0 0 
0 0 0 0 0 0 0 0 0 
0 0 0 0 0 0 0 0 0 
0 0 0 0 0 0 0 0 0 
0 0 0 0 0 0 0 0 0 
0 0 0 0 0 0 0 0 0 
0 0 0 0 0 0 0 0 0 
0 0 0 0 0 0 0 0 0 
0 0 0 0 0 0 0 0 0 
0 0 0 0 0 0 0 0 0 
0 0 0 0 0 0 0 0 0 
0 0 0 0 0 0 0 0 0 
0 0 0 0 0 0 0 0 0 
0 0 0 0 0 0 0 0 0 
0 0 0 0 0 0 0 0 0 
0 0 0 0 0 0 0 0 0 
0 0 0 0 0 0 0 0 0 
0 0 0 0 0 0 0 0 0 
0 0 0 0 0 0 0 0 0 
0 0 0 0 0 0 0 0 0 
0 0 0 0 0 0 0 0 0 
0 0 0 0 0 0 0 0 0 
0 0 0 0 0 0 0 0 0 
0 0 0 0 0 0 0 0 0 
0 0 0 0 0 0 0 0 0 
0 0 0 0 0 0 0 0 0 
0 0 0 0 0 0 0 0 0 
0 0 0 0 0 0 0 0 0 
0 0 0 0 0 0 0 0 0 
0 0 0 0 0 0 0 0 0 
0 0 0 0 0 0 0 0 0 
0 0 0 0 0 0 0 0 0 
0 0 0 0 0 0 0 0 0 
0 0 0 0 0 0 0 0 0 
0 0 0 0 0 0 0 0 0 
0 0 0 0 0 0 0 0 0 
0 0 0 0 0 0 0 0 0 
0 0 0 0 0 0 0 0 0 
0 0 0 0 0 0 0 0 0 
0 0 0 0 0 0 0 0 0 
0 0 0 0 0 0 0 0 0 
0 0 0 0 0 0 0 0 0 
0 0 0 0 0 0 0 0 0 
0 0 0 0 0 0 0 0 0 
0 0 0 0 0 0 0 0 0 
0 0 0 0 0 0 0 0 0 
0 0 0 0 0 0 0 0 0 
0 0 0 0 0 0 0 0 0 
0 0 0 0 0 0 0 0 0 
0 0 0 0 0 0 0 0 0 
0 0 0 0 0 0 0 0 0 
0 0 0 0 0 0 0 0 0 
0 0 0 0 0 0 0 0 0 
0 0 0 0 0 0 0 0 0 
0 0 0 0 0 0 0 0 0 
0 0 0 0 0 0 
POINT_DATA 2124
NORMALS Normals float
-0.0258702 -0.937874 0.34601 -0.0258702 -0.937874 0.34601 -0.0258702 -0.937874 0.34601 
-0.315926 -0.927857 0.198171 -0.315926 -0.927857 0.198171 -0.315926 -0.927857 0.198171 
-0.132802 -0.817705 -0.560109 -0.132802 -0.817705 -0.560109 -0.132802 -0.817705 -0.560109 
0.00348925 -0.825007 -0.565111 0.00348925 -0.825007 -0.565111 0.00348925 -0.825007 -0.565111 
-0.0220813 -0.800513 -0.598909 -0.0220813 -0.800513 -0.598909 -0.0220813 -0.800513 -0.598909 
-0.486372 -0.718767 0.496805 -0.486372 -0.718767 0.496805 -0.486372 -0.718767 0.496805 
0.372653 -0.743034 -0.555905 0.372653 -0.743034 -0.555905 0.372653 -0.743034 -0.555905 
0.357206 -0.815051 -0.456176 0.357206 -0.815051 -0.456176 0.357206 -0.815051 -0.456176 
-0.232501 -0.908674 0.346777 -0.232501 -0.908674 0.346777 -0.232501 -0.908674 0.346777 
0.401174 -0.915375 0.0338774 0.401174 -0.915375 0.0338774 0.401174 -0.915375 0.0338774 
0.227135 -0.971841 -0.0627258 0.227135 -0.971841 -0.0627258 0.227135 -0.971841 -0.0627258 
0.194156 -0.830736 0.52171 0.194156 -0.830736 0.52171 0.194156 -0.830736 0.52171 
-0.539874 -0.797833 0.268324 -0.539874 -0.797833 0.268324 -0.539874 -0.797833 0.268324 
-0.794922 -0.605778 -0.0336469 -0.794922 -0.605778 -0.0336469 -0.794922 -0.605778 -0.0336469 
-0.0247557 -0.679075 -0.733652 -0.0247557 -0.679075 -0.733652 -0.0247557 -0.679075 -0.733652 
-0.347498 -0.415381 -0.840657 -0.347498 -0.415381 -0.840657 -0.347498 -0.415381 -0.840657 
-0.532012 -0.400355 0.746109 -0.532012 -0.400355 0.746109 -0.532012 -0.400355 0.746109 
-0.316852 -0.639448 0.700508 -0.316852 -0.639448 0.700508 -0.316852 -0.639448 0.700508 
0.45755 -0.570364 -0.682153 0.45755 -0.570364 -0.682153 0.45755 -0.570364 -0.682153 
-0.179624 -0.594235 0.783977 -0.179624 -0.594235 0.783977 -0.179624 -0.594235 0.783977 
0.604035 -0.752967 -0.261119 0.604035 -0.752967 -0.261119 0.604035 -0.752967 -0.261119 
0.451201 -0.755749 0.474617 0.451201 -0.755749 0.474617 0.451201 -0.755749 0.474617 
-0.866437 -0.49914 0.0120708 -0.866437 -0.49914 0.0120708 -0.866437 -0.49914 0.0120708 
-0.744309 -0.647931 0.161833 -0.744309 -0.647931 0.161833 -0.744309 -0.647931 0.161833 
-0.186941 -0.667308 -0.720939 -0.186941 -0.667308 -0.720939 -0.186941 -0.667308 -0.720939 
-0.665302 -0.383269 0.640685 -0.665302 -0.383269 0.640685 -0.665302 -0.383269 0.640685 
-0.519403 -0.375329 0.767691 -0.519403 -0.375329 0.767691 -0.519403 -0.375329 0.767691 
0.263146 -0.471577 -0.841646 0.263146 -0.471577 -0.841646 0.263146 -0.471577 -0.841646 
0.433381 -0.539484 -0.721898 0.433381 -0.539484 -0.721898 0.433381 -0.539484 -0.721898 
0.457109 -0.591144 -0.664531 0.457109 -0.591144 -0.664531 0.457109 -0.591144 -0.664531 
-0.192378 -0.507929 0.839642 -0.192378 -0.507929 0.839642 -0.192378 -0.507929 0.839642 
0.596596 -0.756633 -0.267544 0.596596 -0.756633 -0.267544 0.596596 -0.756633 -0.267544 
0.629664 -0.685832 -0.364909 0.629664 -0.685832 -0.364909 0.629664 -0.685832 -0.364909 
0.60777 -0.770804 0.190989 0.60777 -0.770804 0.190989 0.60777 -0.770804 0.190989 
-0.665407 -0.217848 -0.713986 -0.665407 -0.217848 -0.713986 -0.665407 -0.217848 -0.713986 
-0.432951 -0.263063 -0.862178 -0.432951 -0.263063 -0.862178 -0.432951 -0.263063 -0.862178 
-0.0328763 -0.222787 -0.974313 -0.0328763 -0.222787 -0.974313 -0.0328763 -0.222787 -0.974313 
-0.503255 -0.223863 0.834637 -0.503255 -0.223863 0.834637 -0.503255 -0.223863 0.834637 
0.237753 -0.430285 -0.870821 0.237753 -0.430285 -0.870821 0.237753 -0.430285 -0.870821 
0.534704 -0.817271 0.214847 0.534704 -0.817271 0.214847 0.534704 -0.817271 0.214847 
-0.728747 -0.114368 0.675165 -0.728747 -0.114368 0.675165 -0.728747 -0.114368 0.675165 
-0.714631 -0.125287 0.68819 -0.714631 -0.125287 0.68819 -0.714631 -0.125287 0.68819 
-0.14859 -0.183444 -0.971735 -0.14859 -0.183444 -0.971735 -0.14859 -0.183444 -0.971735 
-0.0527117 -0.208501 -0.976601 -0.0527117 -0.208501 -0.976601 -0.0527117 -0.208501 -0.976601 
-0.526719 -0.126233 0.840614 -0.526719 -0.126233 0.840614 -0.526719 -0.126233 0.840614 
-0.38555 -0.189265 0.903067 -0.38555 -0.189265 0.903067 -0.38555 -0.189265 0.903067 
-0.328678 -0.0879774 0.940335 -0.328678 -0.0879774 0.940335 -0.328678 -0.0879774 0.940335 
0.592703 -0.53532 -0.601777 0.592703 -0.53532 -0.601777 0.592703 -0.53532 -0.601777 
0.22995 -0.488891 0.841492 0.22995 -0.488891 0.841492 0.22995 -0.488891 0.841492 
0.0322097 -0.323382 0.94572 0.0322097 -0.323382 0.94572 0.0322097 -0.323382 0.94572 
0.589228 -0.534033 -0.606317 0.589228 -0.534033 -0.606317 0.589228 -0.534033 -0.606317 
0.650508 -0.676527 -0.345183 0.650508 -0.676527 -0.345183 0.650508 -0.676527 -0.345183 
0.690886 -0.71852 -0.0800383 0.690886 -0.71852 -0.0800383 0.690886 -0.71852 -0.0800383 
0.659128 -0.629867 0.410876 0.659128 -0.629867 0.410876 0.659128 -0.629867 0.410876 
0.465313 -0.444656 0.765353 0.465313 -0.444656 0.765353 0.465313 -0.444656 0.765353 
0.0943448 -0.25192 -0.963138 0.0943448 -0.25192 -0.963138 0.0943448 -0.25192 -0.963138 
0.255903 -0.337196 -0.905987 0.255903 -0.337196 -0.905987 0.255903 -0.337196 -0.905987 
0.213339 -0.29689 -0.930775 0.213339 -0.29689 -0.930775 0.213339 -0.29689 -0.930775 
0.467141 -0.419868 -0.778133 0.467141 -0.419868 -0.778133 0.467141 -0.419868 -0.778133 
-0.0993936 -0.172672 0.979952 -0.0993936 -0.172672 0.979952 -0.0993936 -0.172672 0.979952 
-0.0111071 -0.257112 0.966318 -0.0111071 -0.257112 0.966318 -0.0111071 -0.257112 0.966318 
-0.915845 0.166502 -0.365383 -0.915845 0.166502 -0.365383 -0.915845 0.166502 -0.365383 
-0.788628 0.143374 0.597922 -0.788628 0.143374 0.597922 -0.788628 0.143374 0.597922 
-0.748756 0.0448953 -0.661323 -0.748756 0.0448953 -0.661323 -0.748756 0.0448953 -0.661323 
-0.501152 0.0723157 0.862333 -0.501152 0.0723157 0.862333 -0.501152 0.0723157 0.862333 
-0.053599 -0.104881 -0.993039 -0.053599 -0.104881 -0.993039 -0.053599 -0.104881 -0.993039 
0.403955 -0.324733 -0.855201 0.403955 -0.324733 -0.855201 0.403955 -0.324733 -0.855201 
-0.183463 0.079429 0.979812 -0.183463 0.079429 0.979812 -0.183463 0.079429 0.979812 
0.501899 -0.430532 -0.75016 0.501899 -0.430532 -0.75016 0.501899 -0.430532 -0.75016 
0.0792087 -0.170878 0.982103 0.0792087 -0.170878 0.982103 0.0792087 -0.170878 0.982103 
0.298967 -0.271679 0.914773 0.298967 -0.271679 0.914773 0.298967 -0.271679 0.914773 
0.46469 -0.441648 0.76747 0.46469 -0.441648 0.76747 0.46469 -0.441648 0.76747 
0.671248 -0.48021 -0.564646 0.671248 -0.48021 -0.564646 0.671248 -0.48021 -0.564646 
0.766037 -0.537242 -0.352928 0.766037 -0.537242 -0.352928 0.766037 -0.537242 -0.352928 
0.746732 -0.534211 -0.396244 0.746732 -0.534211 -0.396244 0.746732 -0.534211 -0.396244 
0.818172 -0.563603 -0.11378 0.818172 -0.563603 -0.11378 0.818172 -0.563603 -0.11378 
0.817095 -0.57305 -0.0630108 0.817095 -0.57305 -0.0630108 0.817095 -0.57305 -0.0630108 
0.820108 -0.564936 0.0909393 0.820108 -0.564936 0.0909393 0.820108 -0.564936 0.0909393 
-0.517129 0.163257 -0.840194 -0.517129 0.163257 -0.840194 -0.517129 0.163257 -0.840194 
-0.36975 0.132004 0.919707 -0.36975 0.132004 0.919707 -0.36975 0.132004 0.919707 
-0.376995 0.142686 0.915159 -0.376995 0.142686 0.915159 -0.376995 0.142686 0.915159 
-0.0919384 0.171192 0.980939 -0.0919384 0.171192 0.980939 -0.0919384 0.171192 0.980939 
-0.788682 0.14329 0.59787 -0.788682 0.14329 0.59787 -0.788682 0.14329 0.59787 
-0.281964 0.0913589 -0.955065 -0.281964 0.0913589 -0.955065 -0.281964 0.0913589 -0.955065 
-0.539088 0.200915 0.817935 -0.539088 0.200915 0.817935 -0.539088 0.200915 0.817935 
0.03023 -0.125654 -0.991614 0.03023 -0.125654 -0.991614 0.03023 -0.125654 -0.991614 
-0.374303 0.183768 0.908915 -0.374303 0.183768 0.908915 -0.374303 0.183768 0.908915 
0.664163 -0.448341 -0.598229 0.664163 -0.448341 -0.598229 0.664163 -0.448341 -0.598229 
0.604528 -0.36763 0.706678 0.604528 -0.36763 0.706678 0.604528 -0.36763 0.706678 
0.8183 -0.49763 0.287664 0.8183 -0.49763 0.287664 0.8183 -0.49763 0.287664 
-0.88518 0.405283 -0.228479 -0.88518 0.405283 -0.228479 -0.88518 0.405283 -0.228479 
-0.913158 0.37721 -0.154454 -0.913158 0.37721 -0.154454 -0.913158 0.37721 -0.154454 
-0.891026 0.368068 0.265703 -0.891026 0.368068 0.265703 -0.891026 0.368068 0.265703 
-0.482791 0.210935 0.849953 -0.482791 0.210935 0.849953 -0.482791 0.210935 0.849953 
-0.461785 0.354727 0.812972 -0.461785 0.354727 0.812972 -0.461785 0.354727 0.812972 
0.108841 -0.0991246 -0.989105 0.108841 -0.0991246 -0.989105 0.108841 -0.0991246 -0.989105 
0.268747 -0.149997 -0.95146 0.268747 -0.149997 -0.95146 0.268747 -0.149997 -0.95146 
-0.324411 0.310964 0.893342 -0.324411 0.310964 0.893342 -0.324411 0.310964 0.893342 
0.413808 -0.247555 -0.876059 0.413808 -0.247555 -0.876059 0.413808 -0.247555 -0.876059 
-0.29054 0.314563 0.90368 -0.29054 0.314563 0.90368 -0.29054 0.314563 0.90368 
0.427596 -0.240864 -0.87129 0.427596 -0.240864 -0.87129 0.427596 -0.240864 -0.87129 
-0.103101 0.129467 0.986209 -0.103101 0.129467 0.986209 -0.103101 0.129467 0.986209 
-0.145977 0.118126 0.98221 -0.145977 0.118126 0.98221 -0.145977 0.118126 0.98221 
0.30827 -0.123593 0.943236 0.30827 -0.123593 0.943236 0.30827 -0.123593 0.943236 
0.184125 0.0082152 0.982868 0.184125 0.0082152 0.982868 0.184125 0.0082152 0.982868 
0.565686 -0.257367 0.78343 0.565686 -0.257367 0.78343 0.565686 -0.257367 0.78343 
-0.614068 0.281154 -0.737478 -0.614068 0.281154 -0.737478 -0.614068 0.281154 -0.737478 
-0.341479 0.0875553 -0.935802 -0.341479 0.0875553 -0.935802 -0.341479 0.0875553 -0.935802 
-0.272275 0.0638229 -0.960101 -0.272275 0.0638229 -0.960101 -0.272275 0.0638229 -0.960101 
-0.403268 0.447881 0.797984 -0.403268 0.447881 0.797984 -0.403268 0.447881 0.797984 
0.311536 -0.133077 -0.94087 0.311536 -0.133077 -0.94087 0.311536 -0.133077 -0.94087 
0.561717 -0.36263 -0.743621 0.561717 -0.36263 -0.743621 0.561717 -0.36263 -0.743621 
0.480577 -0.259348 -0.837726 0.480577 -0.259348 -0.837726 0.480577 -0.259348 -0.837726 
0.624981 -0.404014 -0.667961 0.624981 -0.404014 -0.667961 0.624981 -0.404014 -0.667961 
-0.752415 0.629407 -0.194211 -0.752415 0.629407 -0.194211 -0.752415 0.629407 -0.194211 
-0.671665 0.561858 0.482889 -0.671665 0.561858 0.482889 -0.671665 0.561858 0.482889 
-0.540968 0.558182 0.629115 -0.540968 0.558182 0.629115 -0.540968 0.558182 0.629115 
-0.0532211 0.177957 -0.982598 -0.0532211 0.177957 -0.982598 -0.0532211 0.177957 -0.982598 
0.108854 0.0979952 -0.989216 0.108854 0.0979952 -0.989216 0.108854 0.0979952 -0.989216 
0.308293 0.195082 -0.931074 0.308293 0.195082 -0.931074 0.308293 0.195082 -0.931074 
0.896185 -0.438265 -0.06911 0.896185 -0.438265 -0.06911 0.896185 -0.438265 -0.06911 
0.714661 -0.349494 0.6059 0.714661 -0.349494 0.6059 0.714661 -0.349494 0.6059 
0.760154 -0.0826133 0.64447 0.760154 -0.0826133 0.64447 0.760154 -0.0826133 0.64447 
-0.648157 0.525566 -0.551066 -0.648157 0.525566 -0.551066 -0.648157 0.525566 -0.551066 
-0.765111 0.620399 -0.172369 -0.765111 0.620399 -0.172369 -0.765111 0.620399 -0.172369 
-0.437443 0.656823 0.614188 -0.437443 0.656823 0.614188 -0.437443 0.656823 0.614188 
-0.442094 0.637622 0.630866 -0.442094 0.637622 0.630866 -0.442094 0.637622 0.630866 
-0.418032 0.602482 0.679901 -0.418032 0.602482 0.679901 -0.418032 0.602482 0.679901 
-0.403591 0.444543 0.799685 -0.403591 0.444543 0.799685 -0.403591 0.444543 0.799685 
0.253024 0.0349198 -0.96683 0.253024 0.0349198 -0.96683 0.253024 0.0349198 -0.96683 
0.211178 0.00557645 -0.977432 0.211178 0.00557645 -0.977432 0.211178 0.00557645 -0.977432 
-0.28208 0.388149 0.877366 -0.28208 0.388149 0.877366 -0.28208 0.388149 0.877366 
0.212816 0.0380516 0.976351 0.212816 0.0380516 0.976351 0.212816 0.0380516 0.976351 
0.60442 -0.187496 0.774288 0.60442 -0.187496 0.774288 0.60442 -0.187496 0.774288 
-0.539305 0.80977 0.231131 -0.539305 0.80977 0.231131 -0.539305 0.80977 0.231131 
-0.52657 0.573139 -0.627882 -0.52657 0.573139 -0.627882 -0.52657 0.573139 -0.627882 
-0.469171 0.510664 -0.720486 -0.469171 0.510664 -0.720486 -0.469171 0.510664 -0.720486 
-0.13277 0.914451 -0.382298 -0.13277 0.914451 -0.382298 -0.13277 0.914451 -0.382298 
-0.240825 0.561239 -0.791842 -0.240825 0.561239 -0.791842 -0.240825 0.561239 -0.791842 
-0.0491667 0.416637 -0.907742 -0.0491667 0.416637 -0.907742 -0.0491667 0.416637 -0.907742 
-0.424878 0.672489 0.606001 -0.424878 0.672489 0.606001 -0.424878 0.672489 0.606001 
0.0661275 0.507038 -0.859383 0.0661275 0.507038 -0.859383 0.0661275 0.507038 -0.859383 
-0.381297 0.476948 0.791918 -0.381297 0.476948 0.791918 -0.381297 0.476948 0.791918 
0.476991 -0.284831 -0.831475 0.476991 -0.284831 -0.831475 0.476991 -0.284831 -0.831475 
-0.0865058 0.231468 0.968989 -0.0865058 0.231468 0.968989 -0.0865058 0.231468 0.968989 
0.816325 -0.433631 -0.381546 0.816325 -0.433631 -0.381546 0.816325 -0.433631 -0.381546 
0.818016 -0.434529 -0.376876 0.818016 -0.434529 -0.376876 0.818016 -0.434529 -0.376876 
0.820262 -0.434818 -0.371621 0.820262 -0.434818 -0.371621 0.820262 -0.434818 -0.371621 
0.880993 -0.467011 0.0758449 0.880993 -0.467011 0.0758449 0.880993 -0.467011 0.0758449 
-0.453188 0.844974 -0.283972 -0.453188 0.844974 -0.283972 -0.453188 0.844974 -0.283972 
-0.468204 0.872971 0.136774 -0.468204 0.872971 0.136774 -0.468204 0.872971 0.136774 
-0.174064 0.933431 -0.3137 -0.174064 0.933431 -0.3137 -0.174064 0.933431 -0.3137 
-0.183312 0.983026 -0.00753208 -0.183312 0.983026 -0.00753208 -0.183312 0.983026 -0.00753208 
-0.321786 0.898182 0.299537 -0.321786 0.898182 0.299537 -0.321786 0.898182 0.299537 
-0.32707 0.912931 0.244096 -0.32707 0.912931 0.244096 -0.32707 0.912931 0.244096 
-0.0532854 0.7362 -0.674663 -0.0532854 0.7362 -0.674663 -0.0532854 0.7362 -0.674663 
0.0377691 0.87043 -0.490841 0.0377691 0.87043 -0.490841 0.0377691 0.87043 -0.490841 
-0.412442 0.615545 0.671562 -0.412442 0.615545 0.671562 -0.412442 0.615545 0.671562 
0.076388 0.374737 -0.923979 0.076388 0.374737 -0.923979 0.076388 0.374737 -0.923979 
-0.490644 0.648369 0.582139 -0.490644 0.648369 0.582139 -0.490644 0.648369 0.582139 
-0.386092 0.498316 0.776282 -0.386092 0.498316 0.776282 -0.386092 0.498316 0.776282 
-0.313364 0.384202 0.868442 -0.313364 0.384202 0.868442 -0.313364 0.384202 0.868442 
0.649757 -0.300555 -0.6982 0.649757 -0.300555 -0.6982 0.649757 -0.300555 -0.6982 
0.596724 -0.315212 -0.737945 0.596724 -0.315212 -0.737945 0.596724 -0.315212 -0.737945 
0.814181 -0.43008 -0.390052 0.814181 -0.43008 -0.390052 0.814181 -0.43008 -0.390052 
-0.353118 0.935551 -0.00716833 -0.353118 0.935551 -0.00716833 -0.353118 0.935551 -0.00716833 
-0.381246 0.681566 -0.624596 -0.381246 0.681566 -0.624596 -0.381246 0.681566 -0.624596 
-0.352847 0.934833 0.0398389 -0.352847 0.934833 0.0398389 -0.352847 0.934833 0.0398389 
-0.428419 0.810478 0.399479 -0.428419 0.810478 0.399479 -0.428419 0.810478 0.399479 
-0.447128 0.797172 0.405701 -0.447128 0.797172 0.405701 -0.447128 0.797172 0.405701 
-0.0900628 0.232075 0.96852 -0.0900628 0.232075 0.96852 -0.0900628 0.232075 0.96852 
0.125312 0.127433 0.983899 0.125312 0.127433 0.983899 0.125312 0.127433 0.983899 
-0.37766 0.69177 -0.615489 -0.37766 0.69177 -0.615489 -0.37766 0.69177 -0.615489 
-0.686935 0.72606 0.0309418 -0.686935 0.72606 0.0309418 -0.686935 0.72606 0.0309418 
-0.576879 0.609735 0.543538 -0.576879 0.609735 0.543538 -0.576879 0.609735 0.543538 
0.0197968 0.0546344 -0.99831 0.0197968 0.0546344 -0.99831 0.0197968 0.0546344 -0.99831 
-0.139049 0.179893 -0.973809 -0.139049 0.179893 -0.973809 -0.139049 0.179893 -0.973809 
0.380362 -0.151187 -0.912397 0.380362 -0.151187 -0.912397 0.380362 -0.151187 -0.912397 
0.614877 -0.0384757 0.787684 0.614877 -0.0384757 0.787684 0.614877 -0.0384757 0.787684 
0.955753 -0.293986 -0.010394 0.955753 -0.293986 -0.010394 0.955753 -0.293986 -0.010394 
0.917094 -0.282094 0.281712 0.917094 -0.282094 0.281712 0.917094 -0.282094 0.281712 
-0.858895 0.43116 -0.276406 -0.858895 0.43116 -0.276406 -0.858895 0.43116 -0.276406 
-0.815214 0.379827 0.437217 -0.815214 0.379827 0.437217 -0.815214 0.379827 0.437217 
-0.42051 0.464695 0.77925 -0.42051 0.464695 0.77925 -0.42051 0.464695 0.77925 
-0.280015 0.246224 0.927882 -0.280015 0.246224 0.927882 -0.280015 0.246224 0.927882 
0.361554 -0.178415 -0.915121 0.361554 -0.178415 -0.915121 0.361554 -0.178415 -0.915121 
0.168185 -0.0938231 -0.98128 0.168185 -0.0938231 -0.98128 0.168185 -0.0938231 -0.98128 
-0.515848 0.407526 -0.753541 -0.515848 0.407526 -0.753541 -0.515848 0.407526 -0.753541 
-0.673004 0.333272 0.6603 -0.673004 0.333272 0.6603 -0.673004 0.333272 0.6603 
-0.0390938 0.0545324 -0.997746 -0.0390938 0.0545324 -0.997746 -0.0390938 0.0545324 -0.997746 
-0.476956 0.353893 0.804533 -0.476956 0.353893 0.804533 -0.476956 0.353893 0.804533 
0.145642 0.127076 0.981142 0.145642 0.127076 0.981142 0.145642 0.127076 0.981142 
0.557633 -0.154177 0.815644 0.557633 -0.154177 0.815644 0.557633 -0.154177 0.815644 
0.651139 -0.0818611 0.75453 0.651139 -0.0818611 0.75453 0.651139 -0.0818611 0.75453 
0.963058 -0.266271 -0.0402449 0.963058 -0.266271 -0.0402449 0.963058 -0.266271 -0.0402449 
-0.860108 0.456254 -0.228137 -0.860108 0.456254 -0.228137 -0.860108 0.456254 -0.228137 
-0.798333 0.423485 0.428164 -0.798333 0.423485 0.428164 -0.798333 0.423485 0.428164 
-0.817448 0.404801 0.409774 -0.817448 0.404801 0.409774 -0.817448 0.404801 0.409774 
-0.101798 0.255152 0.961527 -0.101798 0.255152 0.961527 -0.101798 0.255152 0.961527 
0.395147 -0.174522 -0.901888 0.395147 -0.174522 -0.901888 0.395147 -0.174522 -0.901888 
0.616929 -0.279591 -0.735682 0.616929 -0.279591 -0.735682 0.616929 -0.279591 -0.735682 
0.84919 -0.300971 -0.433927 0.84919 -0.300971 -0.433927 0.84919 -0.300971 -0.433927 
0.937241 -0.332179 0.105998 0.937241 -0.332179 0.105998 0.937241 -0.332179 0.105998 
-0.136809 0.232312 0.962972 -0.136809 0.232312 0.962972 -0.136809 0.232312 0.962972 
0.16164 0.116155 0.97999 0.16164 0.116155 0.97999 0.16164 0.116155 0.97999 
0.289533 0.112661 0.950515 0.289533 0.112661 0.950515 0.289533 0.112661 0.950515 
0.8672 -0.322722 -0.379229 0.8672 -0.322722 -0.379229 0.8672 -0.322722 -0.379229 
0.572272 -0.130928 0.809545 0.572272 -0.130928 0.809545 0.572272 -0.130928 0.809545 
-0.928538 0.277778 -0.246287 -0.928538 0.277778 -0.246287 -0.928538 0.277778 -0.246287 
-0.560215 0.128299 -0.818352 -0.560215 0.128299 -0.818352 -0.560215 0.128299 -0.818352 
-0.973307 0.222904 -0.0546621 -0.973307 0.222904 -0.0546621 -0.973307 0.222904 -0.0546621 
-0.864446 0.258604 0.431112 -0.864446 0.258604 0.431112 -0.864446 0.258604 0.431112 