# vtk DataFile Version 4.2
3D Slicer output. SPACE=LPS
ASCII
DATASET POLYDATA
POINTS 2064 double
4.0750875473 -4.1448493004 -1.1376008987 5.0626220703 -5.8579735756 0.93472957611 2.1000185013 -4.1250052452 -0.049028396606 
5.0626220703 -5.8579735756 0.93472957611 4.0750875473 -4.1448493004 -1.1376008987 7.0376901627 -5.3693447113 -0.049028396606 
5.0626220703 -5.8579735756 0.93472957611 8.0252246857 -5.9748477936 2.9022445679 4.4027500153 -5.1316041946 1.9184865952 
8.0252246857 -5.1316041946 3.9269104004 4.4027500153 -5.1316041946 1.9184865952 8.0252246857 -5.9748477936 2.9022445679 
7.0376901627 -5.3693447113 -0.049028396606 9.012758255 -5.9116005898 1.9184865952 5.0626220703 -5.8579735756 0.93472957611 
8.0252246857 -5.9748477936 2.9022445679 5.0626220703 -5.8579735756 0.93472957611 9.012758255 -5.9116005898 1.9184865952 
7.0376901627 -5.3693447113 -0.049028396606 9.012758255 -4.4711289406 -0.049028396606 9.012758255 -5.9116005898 1.9184865952 
9.012758255 -4.4711289406 -0.049028396606 10.987827301 -4.8812422752 1.9184865952 9.012758255 -5.9116005898 1.9184865952 
10.987827301 -4.8812422752 1.9184865952 10.987827301 -5.2527155876 2.9022445679 9.012758255 -5.9116005898 1.9184865952 
9.012758255 -5.9116005898 1.9184865952 10.987827301 -5.2527155876 2.9022445679 8.0252246857 -5.9748477936 2.9022445679 
8.0252246857 -5.1316041946 3.9269104004 8.0252246857 -5.9748477936 2.9022445679 10.987827301 -4.3646550179 4.8697595596 
8.0252246857 -5.9748477936 2.9022445679 10.987827301 -5.2527155876 2.9022445679 10.987827301 -4.3646550179 4.8697595596 
10.987827301 -5.2527155876 2.9022445679 11.97536087 -4.6138501167 3.8860015869 10.987827301 -4.3646550179 4.8697595596 
1.7017564774 -3.1580944061 0.93472957611 2.1000185013 -4.1250052452 -0.049028396606 5.0626220703 -5.8579735756 0.93472957611 
5.0626220703 -5.8579735756 0.93472957611 2.7465105057 -3.1580944061 1.9184865952 1.7017564774 -3.1580944061 0.93472957611 
5.0626220703 -5.8579735756 0.93472957611 4.4027500153 -5.1316041946 1.9184865952 2.7465105057 -3.1580944061 1.9184865952 
4.4027500153 -5.1316041946 1.9184865952 8.0252246857 -4.1448493004 4.5088834763 2.7465105057 -3.1580944061 1.9184865952 
8.0252246857 -4.1448493004 4.5088834763 4.4027500153 -5.1316041946 1.9184865952 8.0252246857 -5.1316041946 3.9269104004 
8.0252246857 -4.1448493004 4.5088834763 8.0252246857 -5.1316041946 3.9269104004 10.987827301 -4.3646550179 4.8697595596 
4.0750875473 -4.1448493004 -1.1376008987 2.1000185013 -4.1250052452 -0.049028396606 2.1000185013 -3.3680682182 -1.0327854156 
7.0376901627 -5.3693447113 -0.049028396606 4.0750875473 -4.1448493004 -1.1376008987 6.0501556396 -3.1580944061 -1.6694278717 
7.0376901627 -5.3693447113 -0.049028396606 6.0501556396 -3.1580944061 -1.6694278717 9.012758255 -2.171339035 -1.5573511124 
9.012758255 -4.4711289406 -0.049028396606 7.0376901627 -5.3693447113 -0.049028396606 9.012758255 -2.171339035 -1.5573511124 
8.0252246857 -3.1580944061 4.7962846756 8.0252246857 -4.1448493004 4.5088834763 10.987827301 -4.3646550179 4.8697595596 
10.000292778 -2.171339035 5.4733428955 8.0252246857 -3.1580944061 4.7962846756 10.987827301 -4.3646550179 4.8697595596 
10.987827301 -4.3646550179 4.8697595596 14.937965393 -1.1845846176 5.5602321625 10.000292778 -2.171339035 5.4733428955 
9.012758255 -4.4711289406 -0.049028396606 15.925498962 -0.29854869843 0.93472957611 10.987827301 -4.8812422752 1.9184865952 
11.97536087 -4.6138501167 3.8860015869 14.937965393 -2.171339035 4.9123678207 10.987827301 -4.3646550179 4.8697595596 
10.987827301 -4.3646550179 4.8697595596 14.937965393 -2.171339035 4.9123678207 14.937965393 -1.1845846176 5.5602321625 
0.46032047272 -1.1845846176 -0.049028396606 2.1000185013 -3.3680682182 -1.0327854156 2.1000185013 -4.1250052452 -0.049028396606 
2.1000185013 -4.1250052452 -0.049028396606 1.7017564774 -3.1580944061 0.93472957611 0.46032047272 -1.1845846176 -0.049028396606 
4.0750875473 -1.1845846176 -2.2854909897 4.0750875473 -4.1448493004 -1.1376008987 2.1000185013 -3.3680682182 -1.0327854156 
6.0501556396 -3.1580944061 -1.6694278717 4.0750875473 -4.1448493004 -1.1376008987 4.0750875473 -1.1845846176 -2.2854909897 
2.7465105057 -3.1580944061 1.9184865952 8.0252246857 -4.1448493004 4.5088834763 8.0252246857 -3.1580944061 4.7962846756 
9.012758255 -2.171339035 -1.5573511124 10.987827301 -2.171339035 -0.7305803299 9.012758255 -4.4711289406 -0.049028396606 
10.987827301 -2.171339035 -0.7305803299 15.925498962 -0.29854869843 0.93472957611 9.012758255 -4.4711289406 -0.049028396606 
10.987827301 -4.8812422752 1.9184865952 15.925498962 -1.6593198776 2.9022445679 10.987827301 -5.2527155876 2.9022445679 
10.987827301 -5.2527155876 2.9022445679 15.925498962 -1.6593198776 2.9022445679 11.97536087 -4.6138501167 3.8860015869 
1.7017564774 -3.1580944061 0.93472957611 2.1000185013 -1.1845846176 1.9975194931 0.46032047272 -1.1845846176 -0.049028396606 
2.1000185013 -3.3680682182 -1.0327854156 0.46032047272 -1.1845846176 -0.049028396606 2.1000185013 -1.1845846176 -1.8472681046 
1.7017564774 -3.1580944061 0.93472957611 2.7465105057 -3.1580944061 1.9184865952 2.1000185013 -1.1845846176 1.9975194931 
4.0750875473 -1.1845846176 -2.2854909897 2.1000185013 -3.3680682182 -1.0327854156 2.1000185013 -1.1845846176 -1.8472681046 
7.0376901627 -0.1978302002 4.473277092 2.1000185013 -1.1845846176 1.9975194931 2.7465105057 -3.1580944061 1.9184865952 
8.0252246857 -3.1580944061 4.7962846756 7.0376901627 -0.1978302002 4.473277092 2.7465105057 -3.1580944061 1.9184865952 
6.0501556396 -3.1580944061 -1.6694278717 8.0252246857 0.7889251709 -2.9817914963 9.012758255 -2.171339035 -1.5573511124 
8.0252246857 -3.1580944061 4.7962846756 10.000292778 -2.171339035 5.4733428955 7.0376901627 -0.1978302002 4.473277092 
12.962896347 0.7889251709 5.8468894958 7.0376901627 -0.1978302002 4.473277092 10.000292778 -2.171339035 5.4733428955 
12.962896347 0.7889251709 5.8468894958 10.000292778 -2.171339035 5.4733428955 14.937965393 -1.1845846176 5.5602321625 
10.987827301 -4.8812422752 1.9184865952 15.925498962 -0.29854869843 0.93472957611 15.925498962 -1.6593198776 2.9022445679 
17.484653473 -0.1978302002 3.8860015869 11.97536087 -4.6138501167 3.8860015869 15.925498962 -1.6593198776 2.9022445679 
14.937965393 -2.171339035 4.9123678207 11.97536087 -4.6138501167 3.8860015869 17.484653473 -0.1978302002 3.8860015869 
2.1000185013 -1.1845846176 -1.8472681046 0.46032047272 -1.1845846176 -0.049028396606 0.94726753235 -0.1978302002 -1.0327854156 
5.0626220703 1.775680542 -2.9249930382 4.0750875473 -1.1845846176 -2.2854909897 2.1000185013 -1.1845846176 -1.8472681046 
7.0376901627 -0.1978302002 4.473277092 1.9934005737 0.7889251709 1.9184865952 2.1000185013 -1.1845846176 1.9975194931 
6.0501556396 -3.1580944061 -1.6694278717 4.0750875473 -1.1845846176 -2.2854909897 7.0376901627 2.7624349594 -3.4353218079 
8.0252246857 0.7889251709 -2.9817914963 6.0501556396 -3.1580944061 -1.6694278717 7.0376901627 2.7624349594 -3.4353218079 
9.012758255 -2.171339035 -1.5573511124 8.0252246857 0.7889251709 -2.9817914963 11.97536087 2.7624349594 -2.8109989166 
14.937965393 -1.1845846176 5.5602321625 15.925498962 0.7889251709 5.6377029419 12.962896347 0.7889251709 5.8468894958 
15.925498962 -0.29854869843 0.93472957611 17.900568008 0.86929988861 1.9184865952 15.925498962 -1.6593198776 2.9022445679 
17.484653473 -0.1978302002 3.8860015869 15.925498962 -1.6593198776 2.9022445679 18.272161484 0.7889251709 2.9022445679 
0.94726753235 -0.1978302002 -1.0327854156 0.46032047272 -1.1845846176 -0.049028396606 0.30775737762 0.7889251709 -0.049028396606 
0.46032047272 -1.1845846176 -0.049028396606 2.1000185013 -1.1845846176 1.9975194931 0.30775737762 0.7889251709 -0.049028396606 
2.1000185013 -1.1845846176 1.9975194931 1.9934005737 0.7889251709 1.9184865952 0.30775737762 0.7889251709 -0.049028396606 
2.1000185013 -1.1845846176 -1.8472681046 0.94726753235 -0.1978302002 -1.0327854156 2.1000185013 0.7889251709 -1.9826040268 
2.1000185013 0.7889251709 -1.9826040268 5.0626220703 1.775680542 -2.9249930382 2.1000185013 -1.1845846176 -1.8472681046 
7.0376901627 2.7624349594 -3.4353218079 4.0750875473 -1.1845846176 -2.2854909897 5.0626220703 1.775680542 -2.9249930382 
9.012758255 -2.171339035 -1.5573511124 11.97536087 2.7624349594 -2.8109989166 12.962896347 1.775680542 -2.1011915207 
10.987827301 -2.171339035 -0.7305803299 9.012758255 -2.171339035 -1.5573511124 12.962896347 1.775680542 -2.1011915207 
12.962896347 1.775680542 -2.1011915207 16.913032532 1.775680542 0.083109855652 10.987827301 -2.171339035 -0.7305803299 
10.987827301 -2.171339035 -0.7305803299 16.913032532 1.775680542 0.083109855652 15.925498962 -0.29854869843 0.93472957611 
14.937965393 -2.171339035 4.9123678207 15.925498962 0.7889251709 5.6377029419 14.937965393 -1.1845846176 5.5602321625 
17.900568008 0.86929988861 1.9184865952 18.272161484 0.7889251709 2.9022445679 15.925498962 -1.6593198776 2.9022445679 
17.554138184 0.7889251709 4.8697595596 14.937965393 -2.171339035 4.9123678207 17.484653473 -0.1978302002 3.8860015869 
14.937965393 -2.171339035 4.9123678207 17.554138184 0.7889251709 4.8697595596 15.925498962 0.7889251709 5.6377029419 
0.30775737762 0.7889251709 -0.049028396606 1.9934005737 0.7889251709 1.9184865952 1.5608453751 2.7624349594 0.93472957611 
0.94726753235 -0.1978302002 -1.0327854156 1.571621418 2.7624349594 -1.0327854156 2.1000185013 0.7889251709 -1.9826040268 
0.94726753235 -0.1978302002 -1.0327854156 0.30775737762 0.7889251709 -0.049028396606 1.571621418 2.7624349594 -1.0327854156 
6.0501556396 1.775680542 3.6618804932 1.9934005737 0.7889251709 1.9184865952 7.0376901627 -0.1978302002 4.473277092 
7.0376901627 -0.1978302002 4.473277092 11.97536087 2.7624349594 5.2055625916 6.0501556396 1.775680542 3.6618804932 
12.962896347 0.7889251709 5.8468894958 11.97536087 2.7624349594 5.2055625916 7.0376901627 -0.1978302002 4.473277092 
17.900568008 3.7491893768 4.9760408401 12.962896347 0.7889251709 5.8468894958 15.925498962 0.7889251709 5.6377029419 
[...]
CELL_DATA 688
FIELD FieldData 1
GroupIds 1 688 float
0 0 0 0 0 0 0 0 0 
0 0 0 0 0 0 0 0 0 
0 0 0 0 0 0 0 0 0 
0 0 0 0 0 0 0 0 0 
0 0 0 0 0 0 0 0 0 
0 0 0 0 0 0 0 0 0 
0 0 0 0 0 0 0 0 0 
0 0 0 0 0 0 0 0 0 
0 0 0 0 0 0 0 0 0 
0 0 0 0 0 0 0 0 0 
0 0 0 0 0 0 0 0 0 
0 0 0 0 0 0 0 0 0 
0 0 0 0 0 0 0 0 0 
0 0 0 0 0 0 0 0 0 
0 0 0 0 0 0 0 0 0 
0 0 0 0 0 0 0 0 0 
0 0 0 0 0 0 0 0 0 
0 0 0 0 0 0 0 0 0 
0 0 0 0 0 0 0 0 0 
0 0 0 0 0 0 0 0 0 
0 0 0 0 0 0 0 0 0 
0 0 0 0 0 0 0 0 0 
0 0 0 0 0 0 0 0 0 
0 0 0 0 0 0 0 0 0 
0 0 0 0 0 0 0 0 0 
0 0 0 0 0 0 0 0 0 
0 0 0 0 0 0 0 0 0 
0 0 0 0 0 0 0 0 0 
0 0 0 0 0 0 0 0 0 
0 0 0 0 0 0 0 0 0 
0 0 0 0 0 0 0 0 0 
0 0 0 0 0 0 0 0 0 
0 0 0 0 0 0 0 0 0 
0 0 0 0 0 0 0 0 0 
0 0 0 0 0 0 0 0 0 
0 0 0 0 0 0 0 0 0 
0 0 0 0 0 0 0 0 0 
0 0 0 0 0 0 0 0 0 
0 0 0 0 0 0 0 0 0 
0 0 0 0 0 0 0 0 0 
0 0 0 0 0 0 0 0 0 
0 0 0 0 0 0 0 0 0 
0 0 0 0 0 0 0 0 0 
0 0 0 0 0 0 0 0 0 
0 0 0 0 0 0 0 0 0 
0 0 0 0 0 0 0 0 0 
0 0 0 0 0 0 0 0 0 
0 0 0 0 0 0 0 0 0 
0 0 0 0 0 0 0 0 0 
0 0 0 0 0 0 0 0 0 
0 0 0 0 0 0 0 0 0 
0 0 0 0 0 0 0 0 0 
0 0 0 0 0 0 0 0 0 
0 0 0 0 0 0 0 0 0 
0 0 0 0 0 0 0 0 0 
0 0 0 0 0 0 0 0 0 
0 0 0 0 0 0 0 0 0 
0 0 0 0 0 0 0 0 0 
0 0 0 0 0 0 0 0 0 
0 0 0 0 0 0 0 0 0 
0 0 0 0 0 0 0 0 0 
0 0 0 0 0 0 0 0 0 
0 0 0 0 0 0 0 0 0 
0 0 0 0 0 0 0 0 0 
0 0 0 0 0 0 0 0 0 
0 0 0 0 0 0 0 0 0 
0 0 0 0 0 0 0 0 0 
0 0 0 0 0 0 0 0 0 
0 0 0 0 0 0 0 0 0 
0 0 0 0 0 0 0 0 0 
0 0 0 0 0 0 0 0 0 
0 0 0 0 0 0 0 0 0 
0 0 0 0 0 0 0 0 0 
0 0 0 0 0 0 0 0 0 
0 0 0 0 0 0 0 0 0 
0 0 0 0 0 0 0 0 0 
0 0 0 0 
POINT_DATA 2064
NORMALS Normals float
-0.295308 -0.800715 -0.5212 -0.295308 -0.800715 -0.5212 -0.295308 -0.800715 -0.5212 
-0.104996 -0.790477 -0.603426 -0.104996 -0.790477 -0.603426 -0.104996 -0.790477 -0.603426 
-0.312362 -0.852212 0.419719 -0.312362 -0.852212 0.419719 -0.312362 -0.852212 0.419719 
-0.33229 -0.728276 0.599331 -0.33229 -0.728276 0.599331 -0.33229 -0.728276 0.599331 
0.069143 -0.941804 -0.328974 0.069143 -0.941804 -0.328974 0.069143 -0.941804 -0.328974 
0.00194454 -0.998061 -0.0622148 0.00194454 -0.998061 -0.0622148 0.00194454 -0.998061 -0.0622148 
0.344485 -0.757482 -0.554573 0.344485 -0.757482 -0.554573 0.344485 -0.757482 -0.554573 
0.38796 -0.743672 -0.544462 0.38796 -0.743672 -0.544462 0.38796 -0.743672 -0.544462 
0.438599 -0.84074 -0.317469 0.438599 -0.84074 -0.317469 0.438599 -0.84074 -0.317469 
0.23326 -0.956968 0.172631 0.23326 -0.956968 0.172631 0.23326 -0.956968 0.172631 
-0.00233626 -0.77215 0.635437 -0.00233626 -0.77215 0.635437 -0.00233626 -0.77215 0.635437 
0.216879 -0.889763 0.401605 0.216879 -0.889763 0.401605 0.216879 -0.889763 0.401605 
0.176987 -0.897068 0.404902 0.176987 -0.897068 0.404902 0.176987 -0.897068 0.404902 
-0.557296 -0.693734 0.456239 -0.557296 -0.693734 0.456239 -0.557296 -0.693734 0.456239 
-0.521468 -0.649134 0.553801 -0.521468 -0.649134 0.553801 -0.521468 -0.649134 0.553801 
-0.765407 -0.642357 -0.0391178 -0.765407 -0.642357 -0.0391178 -0.765407 -0.642357 -0.0391178 
-0.463429 -0.388926 0.796223 -0.463429 -0.388926 0.796223 -0.463429 -0.388926 0.796223 
-0.430942 -0.458419 0.777265 -0.430942 -0.458419 0.777265 -0.430942 -0.458419 0.777265 
-0.141184 -0.502923 0.852723 -0.141184 -0.502923 0.852723 -0.141184 -0.502923 0.852723 
-0.325346 -0.749427 -0.576636 -0.325346 -0.749427 -0.576636 -0.325346 -0.749427 -0.576636 
0.0648036 -0.570849 -0.818493 0.0648036 -0.570849 -0.818493 0.0648036 -0.570849 -0.818493 
0.203893 -0.517791 -0.830855 0.203893 -0.517791 -0.830855 0.203893 -0.517791 -0.830855 
0.241997 -0.532123 -0.811346 0.241997 -0.532123 -0.811346 0.241997 -0.532123 -0.811346 
-0.136411 -0.277025 0.95113 -0.136411 -0.277025 0.95113 -0.136411 -0.277025 0.95113 
-0.156227 -0.326841 0.932077 -0.156227 -0.326841 0.932077 -0.156227 -0.326841 0.932077 
0.0331903 -0.251263 0.96735 0.0331903 -0.251263 0.96735 0.0331903 -0.251263 0.96735 
0.472154 -0.639068 -0.607176 0.472154 -0.639068 -0.607176 0.472154 -0.639068 -0.607176 
0.392235 -0.717591 0.575513 0.392235 -0.717591 0.575513 0.392235 -0.717591 0.575513 
0.283585 -0.526307 0.801611 0.283585 -0.526307 0.801611 0.283585 -0.526307 0.801611 
-0.817844 -0.456063 -0.350911 -0.817844 -0.456063 -0.350911 -0.817844 -0.456063 -0.350911 
-0.866626 -0.483266 0.124147 -0.866626 -0.483266 0.124147 -0.866626 -0.483266 0.124147 
-0.188243 -0.355073 -0.91569 -0.188243 -0.355073 -0.91569 -0.188243 -0.355073 -0.91569 
-0.0702564 -0.360643 -0.930054 -0.0702564 -0.360643 -0.930054 -0.0702564 -0.360643 -0.930054 
-0.463737 -0.247753 0.850627 -0.463737 -0.247753 0.850627 -0.463737 -0.247753 0.850627 
0.330381 -0.517629 -0.789246 0.330381 -0.517629 -0.789246 0.330381 -0.517629 -0.789246 
0.449616 -0.585931 -0.674188 0.449616 -0.585931 -0.674188 0.449616 -0.585931 -0.674188 
0.562779 -0.773312 -0.292008 0.562779 -0.773312 -0.292008 0.562779 -0.773312 -0.292008 
0.587163 -0.806818 -0.0654579 0.587163 -0.806818 -0.0654579 0.587163 -0.806818 -0.0654579 
-0.76817 -0.176422 0.615459 -0.76817 -0.176422 0.615459 -0.76817 -0.176422 0.615459 
-0.716642 -0.243753 -0.653459 -0.716642 -0.243753 -0.653459 -0.716642 -0.243753 -0.653459 
-0.664479 -0.245934 0.70568 -0.664479 -0.245934 0.70568 -0.664479 -0.245934 0.70568 
-0.203534 -0.342181 -0.917326 -0.203534 -0.342181 -0.917326 -0.203534 -0.342181 -0.917326 
-0.413993 -0.17142 0.893994 -0.413993 -0.17142 0.893994 -0.413993 -0.17142 0.893994 
-0.477686 -0.0637469 0.876215 -0.477686 -0.0637469 0.876215 -0.477686 -0.0637469 0.876215 
0.162107 -0.383432 -0.909231 0.162107 -0.383432 -0.909231 0.162107 -0.383432 -0.909231 
-0.322372 -0.0042543 0.946603 -0.322372 -0.0042543 0.946603 -0.322372 -0.0042543 0.946603 
-0.24341 0.122185 0.962197 -0.24341 0.122185 0.962197 -0.24341 0.122185 0.962197 
0.00943834 -0.134481 0.990871 0.00943834 -0.134481 0.990871 0.00943834 -0.134481 0.990871 
0.544988 -0.689584 -0.47693 0.544988 -0.689584 -0.47693 0.544988 -0.689584 -0.47693 
0.616799 -0.769499 0.165621 0.616799 -0.769499 0.165621 0.616799 -0.769499 0.165621 
0.624607 -0.779241 0.0514832 0.624607 -0.779241 0.0514832 0.624607 -0.779241 0.0514832 
-0.706374 -0.293556 -0.644097 -0.706374 -0.293556 -0.644097 -0.706374 -0.293556 -0.644097 
-0.214557 -0.137326 -0.967009 -0.214557 -0.137326 -0.967009 -0.214557 -0.137326 -0.967009 
-0.450014 0.011448 0.892948 -0.450014 0.011448 0.892948 -0.450014 0.011448 0.892948 
0.0114013 -0.287551 -0.957698 0.0114013 -0.287551 -0.957698 0.0114013 -0.287551 -0.957698 
-0.0982968 -0.269347 -0.958013 -0.0982968 -0.269347 -0.958013 -0.0982968 -0.269347 -0.958013 
0.220186 -0.362341 -0.905664 0.220186 -0.362341 -0.905664 0.220186 -0.362341 -0.905664 
0.0702395 -0.0741974 0.994767 0.0702395 -0.0741974 0.994767 0.0702395 -0.0741974 0.994767 
0.609915 -0.65177 -0.450777 0.609915 -0.65177 -0.450777 0.609915 -0.65177 -0.450777 
0.717103 -0.687349 -0.115395 0.717103 -0.687349 -0.115395 0.717103 -0.687349 -0.115395 
-0.865885 -0.0669377 -0.495744 -0.865885 -0.0669377 -0.495744 -0.865885 -0.0669377 -0.495744 
-0.778995 -0.0602206 0.624132 -0.778995 -0.0602206 0.624132 -0.778995 -0.0602206 0.624132 
-0.759324 -0.01497 0.650541 -0.759324 -0.01497 0.650541 -0.759324 -0.01497 0.650541 
-0.606827 -0.054379 -0.792972 -0.606827 -0.054379 -0.792972 -0.606827 -0.054379 -0.792972 
-0.282559 -0.0656277 -0.957002 -0.282559 -0.0656277 -0.957002 -0.282559 -0.0656277 -0.957002 
-0.175623 -0.151549 -0.972723 -0.175623 -0.151549 -0.972723 -0.175623 -0.151549 -0.972723 
0.258012 -0.380573 -0.888028 0.258012 -0.380573 -0.888028 0.258012 -0.380573 -0.888028 
0.343491 -0.456824 -0.820564 0.343491 -0.456824 -0.820564 0.343491 -0.456824 -0.820564 
0.424721 -0.479244 -0.768074 0.424721 -0.479244 -0.768074 0.424721 -0.479244 -0.768074 
0.442594 -0.512757 -0.735657 0.442594 -0.512757 -0.735657 0.442594 -0.512757 -0.735657 
0.717895 -0.382075 0.581933 0.717895 -0.382075 0.581933 0.717895 -0.382075 0.581933 
0.685718 -0.657267 -0.312715 0.685718 -0.657267 -0.312715 0.685718 -0.657267 -0.312715 
0.644495 -0.562121 0.518312 0.644495 -0.562121 0.518312 0.644495 -0.562121 0.518312 
0.400779 -0.34196 0.849964 0.400779 -0.34196 0.849964 0.400779 -0.34196 0.849964 
-0.750119 0.15594 0.642655 -0.750119 0.15594 0.642655 -0.750119 0.15594 0.642655 
-0.701242 0.1479 -0.697413 -0.701242 0.1479 -0.697413 -0.701242 0.1479 -0.697413 
-0.748088 0.15778 -0.64457 -0.748088 0.15778 -0.64457 -0.748088 0.15778 -0.64457 
-0.421807 0.156139 0.89314 -0.421807 0.156139 0.89314 -0.421807 0.156139 0.89314 
-0.282042 0.240703 0.928716 -0.282042 0.240703 0.928716 -0.282042 0.240703 0.928716 
-0.250882 0.183341 0.950497 -0.250882 0.183341 0.950497 -0.250882 0.183341 0.950497 
0.0693679 0.173304 0.982422 0.0693679 0.173304 0.982422 0.0693679 0.173304 0.982422 
0.608032 -0.531585 -0.589673 0.608032 -0.531585 -0.589673 0.608032 -0.531585 -0.589673 
0.42505 -0.0821062 0.901438 0.42505 -0.0821062 0.901438 0.42505 -0.0821062 0.901438 
0.769617 -0.575875 -0.275785 0.769617 -0.575875 -0.275785 0.769617 -0.575875 -0.275785 
0.768964 -0.544521 -0.334948 0.768964 -0.544521 -0.334948 0.768964 -0.544521 -0.334948 
0.812651 -0.578497 0.0702758 0.812651 -0.578497 0.0702758 0.812651 -0.578497 0.0702758 
0.814252 -0.57659 0.067365 0.814252 -0.57659 0.067365 0.814252 -0.57659 0.067365 
0.721554 -0.513648 0.464248 0.721554 -0.513648 0.464248 0.721554 -0.513648 0.464248 
-0.866814 0.406291 0.28907 -0.866814 0.406291 0.28907 -0.866814 0.406291 0.28907 
-0.864406 0.405162 -0.297736 -0.864406 0.405162 -0.297736 -0.864406 0.405162 -0.297736 
-0.557358 0.234148 -0.796572 -0.557358 0.234148 -0.796572 -0.557358 0.234148 -0.796572 
-0.28853 0.32183 0.901763 -0.28853 0.32183 0.901763 -0.28853 0.32183 0.901763 
0.184122 -0.287183 -0.940013 0.184122 -0.287183 -0.940013 0.184122 -0.287183 -0.940013 
0.431143 -0.454094 -0.779688 0.431143 -0.454094 -0.779688 0.431143 -0.454094 -0.779688 
0.0817395 0.153363 0.984783 0.0817395 0.153363 0.984783 0.0817395 0.153363 0.984783 
0.614661 -0.524069 -0.589528 0.614661 -0.524069 -0.589528 0.614661 -0.524069 -0.589528 
0.710388 -0.531556 -0.461299 0.710388 -0.531556 -0.461299 0.710388 -0.531556 -0.461299 
0.686053 -0.244955 0.685076 0.686053 -0.244955 0.685076 0.686053 -0.244955 0.685076 
0.361113 -0.0756295 0.92945 0.361113 -0.0756295 0.92945 0.361113 -0.0756295 0.92945 
0.869141 -0.405965 0.282465 0.869141 -0.405965 0.282465 0.869141 -0.405965 0.282465 
0.58474 -0.273125 0.76386 0.58474 -0.273125 0.76386 0.58474 -0.273125 0.76386 
-0.835416 0.437008 -0.333323 -0.835416 0.437008 -0.333323 -0.835416 0.437008 -0.333323 
-0.752391 0.513652 0.412394 -0.752391 0.513652 0.412394 -0.752391 0.513652 0.412394 
-0.459343 0.31359 0.831063 -0.459343 0.31359 0.831063 -0.459343 0.31359 0.831063 
-0.438101 0.310959 0.843429 -0.438101 0.310959 0.843429 -0.438101 0.310959 0.843429 
-0.298534 -0.0150648 -0.95428 -0.298534 -0.0150648 -0.95428 -0.298534 -0.0150648 -0.95428 
0.0785061 -0.185801 -0.979446 0.0785061 -0.185801 -0.979446 0.0785061 -0.185801 -0.979446 
-0.0478688 0.286958 0.956746 -0.0478688 0.286958 0.956746 -0.0478688 0.286958 0.956746 
-0.073835 0.30094 0.95078 -0.073835 0.30094 0.95078 -0.073835 0.30094 0.95078 
0.855004 -0.513284 0.0742209 0.855004 -0.513284 0.0742209 0.855004 -0.513284 0.0742209 
0.764451 -0.458922 0.452776 0.764451 -0.458922 0.452776 0.764451 -0.458922 0.452776 
-0.518651 0.139712 -0.843494 -0.518651 0.139712 -0.843494 -0.518651 0.139712 -0.843494 
-0.703928 0.368226 -0.607368 -0.703928 0.368226 -0.607368 -0.703928 0.368226 -0.607368 
-0.334338 0.410504 0.848354 -0.334338 0.410504 0.848354 -0.334338 0.410504 0.848354 
-0.234711 -0.0326543 -0.971516 -0.234711 -0.0326543 -0.971516 -0.234711 -0.0326543 -0.971516 
-0.287745 -0.051059 -0.956345 -0.287745 -0.051059 -0.956345 -0.287745 -0.051059 -0.956345 
0.0459885 -0.0532574 -0.997521 0.0459885 -0.0532574 -0.997521 0.0459885 -0.0532574 -0.997521 
-0.34133 0.407872 0.846838 -0.34133 0.407872 0.846838 -0.34133 0.407872 0.846838 
-0.212556 0.481845 0.850085 -0.212556 0.481845 0.850085 -0.212556 0.481845 0.850085 
0.373266 -0.265806 -0.888831 0.373266 -0.265806 -0.888831 0.373266 -0.265806 -0.888831 
0.364497 -0.260781 -0.893944 0.364497 -0.260781 -0.893944 0.364497 -0.260781 -0.893944 
0.502118 -0.435229 -0.747297 0.502118 -0.435229 -0.747297 0.502118 -0.435229 -0.747297 
-0.733823 0.6414 0.223852 -0.733823 0.6414 0.223852 -0.733823 0.6414 0.223852 
0.077274 0.00944407 -0.996965 0.077274 0.00944407 -0.996965 0.077274 0.00944407 -0.996965 
0.152033 0.0345339 -0.987772 0.152033 0.0345339 -0.987772 0.152033 0.0345339 -0.987772 
-0.255531 0.530171 0.808469 -0.255531 0.530171 0.808469 -0.255531 0.530171 0.808469 
0.32263 -0.146139 -0.935175 0.32263 -0.146139 -0.935175 0.32263 -0.146139 -0.935175 
-0.194754 0.406308 0.89274 -0.194754 0.406308 0.89274 -0.194754 0.406308 0.89274 
0.234863 -0.118081 -0.96483 0.234863 -0.118081 -0.96483 0.234863 -0.118081 -0.96483 
0.362119 0.0129856 0.932041 0.362119 0.0129856 0.932041 0.362119 0.0129856 0.932041 
0.158421 0.228348 0.960604 0.158421 0.228348 0.960604 0.158421 0.228348 0.960604 
0.512829 -0.109575 0.851469 0.512829 -0.109575 0.851469 0.512829 -0.109575 0.851469 
0.715771 -0.179544 0.67486 0.715771 -0.179544 0.67486 0.715771 -0.179544 0.67486 
0.719388 -0.521562 -0.458753 0.719388 -0.521562 -0.458753 0.719388 -0.521562 -0.458753 
-0.630586 0.553473 -0.544086 -0.630586 0.553473 -0.544086 -0.630586 0.553473 -0.544086 
-0.732398 0.642835 0.224404 -0.732398 0.642835 0.224404 -0.732398 0.642835 0.224404 
-0.385207 0.685765 0.617529 -0.385207 0.685765 0.617529 -0.385207 0.685765 0.617529 
-0.47166 0.434902 -0.767071 -0.47166 0.434902 -0.767071 -0.47166 0.434902 -0.767071 
-0.281503 0.213101 -0.935598 -0.281503 0.213101 -0.935598 -0.281503 0.213101 -0.935598 
-0.502668 0.448875 -0.738807 -0.502668 0.448875 -0.738807 -0.502668 0.448875 -0.738807 
0.0046811 0.222079 -0.975017 0.0046811 0.222079 -0.975017 0.0046811 0.222079 -0.975017 
-0.253012 0.718932 0.647396 -0.253012 0.718932 0.647396 -0.253012 0.718932 0.647396 
-0.252361 0.554306 0.793132 -0.252361 0.554306 0.793132 -0.252361 0.554306 0.793132 
0.293355 -0.291576 -0.910454 0.293355 -0.291576 -0.910454 0.293355 -0.291576 -0.910454 
0.8682 -0.397166 -0.29747 0.8682 -0.397166 -0.29747 0.8682 -0.397166 -0.29747 
0.906545 -0.414708 0.0786951 0.906545 -0.414708 0.0786951 0.906545 -0.414708 0.0786951 
-0.5494 0.589247 -0.592409 -0.5494 0.589247 -0.592409 -0.5494 0.589247 -0.592409 
-0.541352 0.736149 0.40623 -0.541352 0.736149 0.40623 -0.541352 0.736149 0.40623 
-0.496161 0.532146 -0.686036 -0.496161 0.532146 -0.686036 -0.496161 0.532146 -0.686036 
-0.326128 0.932774 0.153533 -0.326128 0.932774 0.153533 -0.326128 0.932774 0.153533 
-0.184185 0.955034 0.232347 -0.184185 0.955034 0.232347 -0.184185 0.955034 0.232347 
0.0159975 0.519176 -0.854517 0.0159975 0.519176 -0.854517 0.0159975 0.519176 -0.854517 
-0.0371199 0.881688 -0.47037 -0.0371199 0.881688 -0.47037 -0.0371199 0.881688 -0.47037 
0.0039752 0.560732 -0.827988 0.0039752 0.560732 -0.827988 0.0039752 0.560732 -0.827988 
-0.17164 0.889983 0.422457 -0.17164 0.889983 0.422457 -0.17164 0.889983 0.422457 
0.211515 0.229206 -0.950119 0.211515 0.229206 -0.950119 0.211515 0.229206 -0.950119 
0.0335797 0.145195 -0.988833 0.0335797 0.145195 -0.988833 0.0335797 0.145195 -0.988833 
0.165545 0.0999522 -0.981124 0.165545 0.0999522 -0.981124 0.165545 0.0999522 -0.981124 
-0.19763 0.397857 0.895909 -0.19763 0.397857 0.895909 -0.19763 0.397857 0.895909 
0.260304 -0.230553 -0.937596 0.260304 -0.230553 -0.937596 0.260304 -0.230553 -0.937596 
-0.0700948 0.304365 0.949973 -0.0700948 0.304365 0.949973 -0.0700948 0.304365 0.949973 
0.487712 -0.406723 -0.772472 0.487712 -0.406723 -0.772472 0.487712 -0.406723 -0.772472 
0.224645 0.100691 0.969224 0.224645 0.100691 0.969224 0.224645 0.100691 0.969224 
0.694801 -0.204925 0.689389 0.694801 -0.204925 0.689389 0.694801 -0.204925 0.689389 
0.782563 -0.23081 0.578206 0.782563 -0.23081 0.578206 0.782563 -0.23081 0.578206 
-0.100015 0.90239 -0.419152 -0.100015 0.90239 -0.419152 -0.100015 0.90239 -0.419152 
-0.108776 0.981436 0.15796 -0.108776 0.981436 0.15796 -0.108776 0.981436 0.15796 
-0.270071 0.950607 0.152998 -0.270071 0.950607 0.152998 -0.270071 0.950607 0.152998 
-0.256431 0.947516 0.190934 -0.256431 0.947516 0.190934 -0.256431 0.947516 0.190934 
-0.313643 0.708292 0.632417 -0.313643 0.708292 0.632417 -0.313643 0.708292 0.632417 
-0.111848 0.553676 -0.825187 -0.111848 0.553676 -0.825187 -0.111848 0.553676 -0.825187 
-0.197305 0.976713 -0.0842723 -0.197305 0.976713 -0.0842723 -0.197305 0.976713 -0.0842723 
-0.470132 0.60557 0.642075 -0.470132 0.60557 0.642075 -0.470132 0.60557 0.642075 
-0.22339 0.610376 -0.75996 -0.22339 0.610376 -0.75996 -0.22339 0.610376 -0.75996 
-0.154679 0.625685 0.764587 -0.154679 0.625685 0.764587 -0.154679 0.625685 0.764587 
-0.21822 0.399727 0.89028 -0.21822 0.399727 0.89028 -0.21822 0.399727 0.89028 
-0.0643447 0.302367 0.951017 -0.0643447 0.302367 0.951017 -0.0643447 0.302367 0.951017 
0.538362 -0.390316 -0.746873 0.538362 -0.390316 -0.746873 0.538362 -0.390316 -0.746873 
0.742643 -0.668346 0.0423624 0.742643 -0.668346 0.0423624 0.742643 -0.668346 0.0423624 
-0.409376 0.684346 -0.603391 -0.409376 0.684346 -0.603391 -0.409376 0.684346 -0.603391 
-0.577047 0.743285 0.338445 -0.577047 0.743285 0.338445 -0.577047 0.743285 0.338445 
-0.504285 0.843003 0.187197 -0.504285 0.843003 0.187197 -0.504285 0.843003 0.187197 
-0.539949 0.506 0.672621 -0.539949 0.506 0.672621 -0.539949 0.506 0.672621 
-0.0265104 -0.0932045 -0.995294 -0.0265104 -0.0932045 -0.995294 -0.0265104 -0.0932045 -0.995294 
0.482254 0.0350179 0.875331 0.482254 0.0350179 0.875331 0.482254 0.0350179 0.875331 
-0.764091 0.591816 0.256747 -0.764091 0.591816 0.256747 -0.764091 0.591816 0.256747 
-0.0736538 0.000864259 -0.997284 -0.0736538 0.000864259 -0.997284 -0.0736538 0.000864259 -0.997284 
-0.447258 0.513421 0.732366 -0.447258 0.513421 0.732366 -0.447258 0.513421 0.732366 
-0.273125 0.309227 0.910923 -0.273125 0.309227 0.910923 -0.273125 0.309227 0.910923 
0.600125 -0.336454 -0.725705 0.600125 -0.336454 -0.725705 0.600125 -0.336454 -0.725705 
0.795642 -0.291157 0.531208 0.795642 -0.291157 0.531208 0.795642 -0.291157 0.531208 
0.453197 0.0296751 0.890916 0.453197 0.0296751 0.890916 0.453197 0.0296751 0.890916 
0.784862 -0.440024 -0.436314 0.784862 -0.440024 -0.436314 0.784862 -0.440024 -0.436314 
-0.350613 0.277712 -0.894397 -0.350613 0.277712 -0.894397 -0.350613 0.277712 -0.894397 
-0.687595 0.544628 -0.480201 -0.687595 0.544628 -0.480201 -0.687595 0.544628 -0.480201 
-0.67186 0.629617 0.390111 -0.67186 0.629617 0.390111 -0.67186 0.629617 0.390111 
-0.485884 0.320325 -0.813209 -0.485884 0.320325 -0.813209 -0.485884 0.320325 -0.813209 
-0.178621 -0.0522186 -0.982531 -0.178621 -0.0522186 -0.982531 -0.178621 -0.0522186 -0.982531 
0.267702 -0.211048 -0.940103 0.267702 -0.211048 -0.940103 0.267702 -0.211048 -0.940103 
0.590503 -0.296873 -0.750448 0.590503 -0.296873 -0.750448 0.590503 -0.296873 -0.750448 
0.937752 -0.343161 0.0534919 0.937752 -0.343161 0.0534919 0.937752 -0.343161 0.0534919 
-0.684225 0.529957 -0.500981 -0.684225 0.529957 -0.500981 -0.684225 0.529957 -0.500981 
-0.884059 0.3712 0.28399 -0.884059 0.3712 0.28399 -0.884059 0.3712 0.28399 
0.0278883 -0.0530515 -0.998202 0.0278883 -0.0530515 -0.998202 0.0278883 -0.0530515 -0.998202 
0.307768 -0.198209 -0.930587 0.307768 -0.198209 -0.930587 0.307768 -0.198209 -0.930587 
0.0265034 0.173237 0.984523 0.0265034 0.173237 0.984523 0.0265034 0.173237 0.984523 
0.583501 -0.301388 -0.754117 0.583501 -0.301388 -0.754117 0.583501 -0.301388 -0.754117 
0.451629 -0.0882283 0.887833 0.451629 -0.0882283 0.887833 0.451629 -0.0882283 0.887833 
0.887557 -0.372399 -0.271221 0.887557 -0.372399 -0.271221 0.887557 -0.372399 -0.271221 
0.956389 -0.27782 -0.0902066 0.956389 -0.27782 -0.0902066 0.956389 -0.27782 -0.0902066 
0.345545 -0.100377 0.933018 0.345545 -0.100377 0.933018 0.345545 -0.100377 0.933018 
-0.379817 0.0569948 -0.923304 -0.379817 0.0569948 -0.923304 -0.379817 0.0569948 -0.923304 