# vtk DataFile Version 4.2
3D Slicer output. SPACE=LPS
ASCII
DATASET POLYDATA
POINTS 2160 double
5.0655236244 -5.7416591644 0.6431388855 7.0626883507 -6.1171088219 1.6486282349 4.9860920906 -5.2319302559 1.6486282349 
5.0655236244 -5.4209542274 -0.36235046387 7.0626883507 -4.2511472702 -1.2359037399 7.0626883507 -6.0235528946 0.6431388855 
5.0655236244 -5.4209542274 -0.36235046387 7.0626883507 -6.0235528946 0.6431388855 5.0655236244 -5.7416591644 0.6431388855 
7.0626883507 -6.0235528946 0.6431388855 7.0626883507 -6.1171088219 1.6486282349 5.0655236244 -5.7416591644 0.6431388855 
7.0626883507 -6.0235528946 0.6431388855 9.0598526001 -5.9734401703 1.6486282349 7.0626883507 -6.1171088219 1.6486282349 
9.0598526001 -5.9734401703 1.6486282349 9.0598526001 -5.9947023392 2.6541194916 7.0626883507 -6.1171088219 1.6486282349 
7.0626883507 -6.1171088219 1.6486282349 9.0598526001 -5.9947023392 2.6541194916 4.9860920906 -5.2319302559 1.6486282349 
9.5612926483 -5.2319302559 0.6431388855 9.0598526001 -5.9734401703 1.6486282349 7.0626883507 -6.0235528946 0.6431388855 
9.5612926483 -5.2319302559 0.6431388855 12.055599213 -4.4379930496 1.6486282349 9.0598526001 -5.9734401703 1.6486282349 
12.055599213 -4.4379930496 1.6486282349 9.0598526001 -5.9947023392 2.6541194916 9.0598526001 -5.9734401703 1.6486282349 
10.05843544 -4.2829780579 4.6650981903 9.0598526001 -5.9947023392 2.6541194916 12.055599213 -4.1328544617 4.6650981903 
2.6013178825 -4.2511472702 -0.36235046387 4.0669417381 -4.2511472702 -1.2550067902 5.0655236244 -5.4209542274 -0.36235046387 
5.0655236244 -5.4209542274 -0.36235046387 5.0655236244 -5.7416591644 0.6431388855 2.6013178825 -4.2511472702 -0.36235046387 
2.6013178825 -4.2511472702 -0.36235046387 5.0655236244 -5.7416591644 0.6431388855 2.0697770119 -3.5130739212 0.6431388855 
5.0655236244 -5.7416591644 0.6431388855 2.0697770119 -2.2895812988 1.4748630524 2.0697770119 -3.5130739212 0.6431388855 
5.0655236244 -5.7416591644 0.6431388855 4.9860920906 -5.2319302559 1.6486282349 2.0697770119 -2.2895812988 1.4748630524 
4.9860920906 -5.2319302559 1.6486282349 8.0612697601 -3.2703642845 4.4680156708 2.0697770119 -2.2895812988 1.4748630524 
7.0626883507 -4.2511472702 -1.2359037399 9.0598526001 -3.2703642845 -1.2363491058 9.5612926483 -5.2319302559 0.6431388855 
9.5612926483 -5.2319302559 0.6431388855 7.0626883507 -6.0235528946 0.6431388855 7.0626883507 -4.2511472702 -1.2359037399 
9.0598526001 -5.9947023392 2.6541194916 8.0612697601 -3.2703642845 4.4680156708 4.9860920906 -5.2319302559 1.6486282349 
8.0612697601 -3.2703642845 4.4680156708 9.0598526001 -5.9947023392 2.6541194916 10.05843544 -4.2829780579 4.6650981903 
12.055599213 -4.4379930496 1.6486282349 12.055599213 -4.847225666 3.6596088409 9.0598526001 -5.9947023392 2.6541194916 
12.055599213 -4.847225666 3.6596088409 12.055599213 -4.1328544617 4.6650981903 9.0598526001 -5.9947023392 2.6541194916 
1.160469532 -2.2895812988 -0.36235046387 2.6013178825 -4.2511472702 -0.36235046387 2.0697770119 -3.5130739212 0.6431388855 
7.0626883507 -4.2511472702 -1.2359037399 5.0655236244 -5.4209542274 -0.36235046387 4.0669417381 -4.2511472702 -1.2550067902 
7.0626883507 -4.2511472702 -1.2359037399 4.0669417381 -4.2511472702 -1.2550067902 4.0669417381 -2.2895812988 -2.1566429138 
9.0598526001 -3.2703642845 -1.2363491058 12.055599213 -4.4379930496 1.6486282349 9.5612926483 -5.2319302559 0.6431388855 
12.055599213 -4.847225666 3.6596088409 15.051345825 -2.3819446564 4.6650981903 12.055599213 -4.1328544617 4.6650981903 
15.051345825 -2.8006401062 3.6596088409 12.055599213 -4.847225666 3.6596088409 12.055599213 -4.4379930496 1.6486282349 
2.6013178825 -4.2511472702 -0.36235046387 1.160469532 -2.2895812988 -0.36235046387 2.0697770119 -2.2895812988 -1.5966978073 
4.0669417381 -4.2511472702 -1.2550067902 2.6013178825 -4.2511472702 -0.36235046387 2.0697770119 -2.2895812988 -1.5966978073 
4.0669417381 -4.2511472702 -1.2550067902 2.0697770119 -2.2895812988 -1.5966978073 4.0669417381 -2.2895812988 -2.1566429138 
15.051345825 -1.2160177231 0.6431388855 12.055599213 -4.4379930496 1.6486282349 9.0598526001 -3.2703642845 -1.2363491058 
12.055599213 -1.30879879 5.6716403961 10.05843544 -4.2829780579 4.6650981903 12.055599213 -4.1328544617 4.6650981903 
15.051345825 -2.3819446564 4.6650981903 15.051345825 -1.30879879 5.3793563843 12.055599213 -4.1328544617 4.6650981903 
12.055599213 -4.1328544617 4.6650981903 15.051345825 -1.30879879 5.3793563843 12.055599213 -1.30879879 5.6716403961 
15.051345825 -1.2160177231 0.6431388855 16.049928665 -1.8703165054 2.6541194916 12.055599213 -4.4379930496 1.6486282349 
15.051345825 -2.8006401062 3.6596088409 15.051345825 -2.3819446564 4.6650981903 12.055599213 -4.847225666 3.6596088409 
15.051345825 -2.8006401062 3.6596088409 12.055599213 -4.4379930496 1.6486282349 16.049928665 -1.8703165054 2.6541194916 
1.160469532 -2.2895812988 -0.36235046387 2.0697770119 -3.5130739212 0.6431388855 0.62088012695 -0.32801532745 0.6431388855 
0.31333875656 -0.32801532745 -0.36235046387 1.160469532 -2.2895812988 -0.36235046387 0.62088012695 -0.32801532745 0.6431388855 
0.31333875656 -0.32801532745 -0.36235046387 2.0697770119 0.6527671814 -1.9720363617 2.0697770119 -2.2895812988 -1.5966978073 
0.31333875656 -0.32801532745 -0.36235046387 2.0697770119 -2.2895812988 -1.5966978073 1.160469532 -2.2895812988 -0.36235046387 
2.0697770119 -3.5130739212 0.6431388855 2.0697770119 -2.2895812988 1.4748630524 0.62088012695 -0.32801532745 0.6431388855 
4.0669417381 -2.2895812988 -2.1566429138 2.0697770119 -2.2895812988 -1.5966978073 3.068359375 0.6527671814 -2.3792905807 
3.068359375 0.6527671814 -2.3792905807 2.0697770119 -2.2895812988 -1.5966978073 2.0697770119 0.6527671814 -1.9720363617 
4.0669417381 -2.2895812988 -2.1566429138 3.068359375 0.6527671814 -2.3792905807 6.0641055107 0.6527671814 -3.0025949478 
2.0697770119 -2.2895812988 1.4748630524 8.0612697601 -3.2703642845 4.4680156708 2.0697770119 -0.32801532745 1.9020309448 
7.0626883507 -4.2511472702 -1.2359037399 4.0669417381 -2.2895812988 -2.1566429138 6.0641055107 0.6527671814 -3.0025949478 
8.0612697601 -0.32801532745 -2.7172403336 7.0626883507 -4.2511472702 -1.2359037399 6.0641055107 0.6527671814 -3.0025949478 
9.0598526001 -3.2703642845 -1.2363491058 7.0626883507 -4.2511472702 -1.2359037399 8.0612697601 -0.32801532745 -2.7172403336 
10.05843544 -4.2829780579 4.6650981903 12.055599213 -1.30879879 5.6716403961 8.0612697601 -3.2703642845 4.4680156708 
17.990699768 0.6527671814 4.6650981903 15.051345825 -2.3819446564 4.6650981903 15.051345825 -2.8006401062 3.6596088409 
15.051345825 -2.3819446564 4.6650981903 17.990699768 0.6527671814 4.6650981903 15.051345825 -1.30879879 5.3793563843 
2.0697770119 -0.32801532745 1.9020309448 0.62088012695 -0.32801532745 0.6431388855 2.0697770119 -2.2895812988 1.4748630524 
2.0697770119 -0.32801532745 1.9020309448 8.0612697601 -3.2703642845 4.4680156708 7.0626883507 0.6527671814 4.2343635559 
12.055599213 -1.30879879 5.6716403961 7.0626883507 0.6527671814 4.2343635559 8.0612697601 -3.2703642845 4.4680156708 
12.055599213 -1.30879879 5.6716403961 15.051345825 -1.30879879 5.3793563843 15.051345825 1.6335506439 5.6667175293 
15.051345825 -1.2160177231 0.6431388855 18.047092438 2.6143331528 -0.34811401367 16.049928665 -1.8703165054 2.6541194916 
17.990699768 0.6527671814 4.6650981903 17.048509598 0.6527671814 5.2459526062 15.051345825 -1.30879879 5.3793563843 
15.051345825 -2.8006401062 3.6596088409 16.049928665 -1.8703165054 2.6541194916 19.514225006 1.6335506439 2.6541194916 
19.349006653 1.6335506439 3.6596088409 15.051345825 -2.8006401062 3.6596088409 19.514225006 1.6335506439 2.6541194916 
17.990699768 0.6527671814 4.6650981903 15.051345825 -2.8006401062 3.6596088409 19.349006653 1.6335506439 3.6596088409 
7.0626883507 0.6527671814 4.2343635559 2.0697770119 1.6335506439 1.8459949493 2.0697770119 -0.32801532745 1.9020309448 
13.054182053 2.6143331528 -2.5274753571 9.0598526001 -3.2703642845 -1.2363491058 8.0612697601 -0.32801532745 -2.7172403336 
15.051345825 -1.2160177231 0.6431388855 9.0598526001 -3.2703642845 -1.2363491058 16.049928665 2.6143331528 -1.3761320114 
15.051345825 -1.30879879 5.3793563843 17.048509598 0.6527671814 5.2459526062 15.051345825 1.6335506439 5.6667175293 
0.62088012695 -0.32801532745 0.6431388855 1.6907553673 3.5951166153 0.6431388855 0.31333875656 -0.32801532745 -0.36235046387 
0.62088012695 -0.32801532745 0.6431388855 2.0697770119 1.6335506439 1.8459949493 1.6907553673 3.5951166153 0.6431388855 
2.0697770119 1.6335506439 1.8459949493 0.62088012695 -0.32801532745 0.6431388855 2.0697770119 -0.32801532745 1.9020309448 
6.0641055107 0.6527671814 -3.0025949478 3.068359375 0.6527671814 -2.3792905807 6.0641055107 2.6143331528 -3.260427475 
12.055599213 -1.30879879 5.6716403961 10.05843544 2.6143331528 4.7635688782 7.0626883507 0.6527671814 4.2343635559 
13.054182053 2.6143331528 5.3638801575 10.05843544 2.6143331528 4.7635688782 12.055599213 -1.30879879 5.6716403961 
15.051345825 1.6335506439 5.6667175293 13.054182053 2.6143331528 5.3638801575 12.055599213 -1.30879879 5.6716403961 
16.049928665 2.6143331528 -1.3761320114 9.0598526001 -3.2703642845 -1.2363491058 13.054182053 2.6143331528 -2.5274753571 
16.049928665 2.6143331528 -1.3761320114 18.047092438 2.6143331528 -0.34811401367 15.051345825 -1.2160177231 0.6431388855 
18.047092438 2.6143331528 -0.34811401367 20.04425621 2.5996799469 1.6486282349 16.049928665 -1.8703165054 2.6541194916 
20.04425621 2.5996799469 1.6486282349 19.514225006 1.6335506439 2.6541194916 16.049928665 -1.8703165054 2.6541194916 
1.6147642136 3.5951166153 -0.36235046387 0.31333875656 -0.32801532745 -0.36235046387 1.6907553673 3.5951166153 0.6431388855 
2.1803646088 3.5951166153 -1.3678398132 2.0697770119 0.6527671814 -1.9720363617 0.31333875656 -0.32801532745 -0.36235046387 
1.6147642136 3.5951166153 -0.36235046387 2.1803646088 3.5951166153 -1.3678398132 0.31333875656 -0.32801532745 -0.36235046387 
[...]
CELL_DATA 720
FIELD FieldData 1
GroupIds 1 720 float
0 0 0 0 0 0 0 0 0 
0 0 0 0 0 0 0 0 0 
0 0 0 0 0 0 0 0 0 
0 0 0 0 0 0 0 0 0 
0 0 0 0 0 0 0 0 0 
0 0 0 0 0 0 0 0 0 
0 0 0 0 0 0 0 0 0 
0 0 0 0 0 0 0 0 0 
0 0 0 0 0 0 0 0 0 
0 0 0 0 0 0 0 0 0 
0 0 0 0 0 0 0 0 0 
0 0 0 0 0 0 0 0 0 
0 0 0 0 0 0 0 0 0 
0 0 0 0 0 0 0 0 0 
0 0 0 0 0 0 0 0 0 
0 0 0 0 0 0 0 0 0 
0 0 0 0 0 0 0 0 0 
0 0 0 0 0 0 0 0 0 
0 0 0 0 0 0 0 0 0 
0 0 0 0 0 0 0 0 0 
0 0 0 0 0 0 0 0 0 
0 0 0 0 0 0 0 0 0 
0 0 0 0 0 0 0 0 0 
0 0 0 0 0 0 0 0 0 
0 0 0 0 0 0 0 0 0 
0 0 0 0 0 0 0 0 0 
0 0 0 0 0 0 0 0 0 
0 0 0 0 0 0 0 0 0 
0 0 0 0 0 0 0 0 0 
0 0 0 0 0 0 0 0 0 
0 0 0 0 0 0 0 0 0 
0 0 0 0 0 0 0 0 0 
0 0 0 0 0 0 0 0 0 
0 0 0 0 0 0 0 0 0 
0 0 0 0 0 0 0 0 0 
0 0 0 0 0 0 0 0 0 
0 0 0 0 0 0 0 0 0 
0 0 0 0 0 0 0 0 0 
0 0 0 0 0 0 0 0 0 
0 0 0 0 0 0 0 0 0 
0 0 0 0 0 0 0 0 0 
0 0 0 0 0 0 0 0 0 
0 0 0 0 0 0 0 0 0 
0 0 0 0 0 0 0 0 0 
0 0 0 0 0 0 0 0 0 
0 0 0 0 0 0 0 0 0 
0 0 0 0 0 0 0 0 0 
0 0 0 0 0 0 0 0 0 
0 0 0 0 0 0 0 0 0 
0 0 0 0 0 0 0 0 0 
0 0 0 0 0 0 0 0 0 
0 0 0 0 0 0 0 0 0 
0 0 0 0 0 0 0 0 0 
0 0 0 0 0 0 0 0 0 
0 0 0 0 0 0 0 0 0 
0 0 0 0 0 0 0 0 0 
0 0 0 0 0 0 0 0 0 
0 0 0 0 0 0 0 0 0 
0 0 0 0 0 0 0 0 0 
0 0 0 0 0 0 0 0 0 
0 0 0 0 0 0 0 0 0 
0 0 0 0 0 0 0 0 0 
0 0 0 0 0 0 0 0 0 
0 0 0 0 0 0 0 0 0 
0 0 0 0 0 0 0 0 0 
0 0 0 0 0 0 0 0 0 
0 0 0 0 0 0 0 0 0 
0 0 0 0 0 0 0 0 0 
0 0 0 0 0 0 0 0 0 
0 0 0 0 0 0 0 0 0 
0 0 0 0 0 0 0 0 0 
0 0 0 0 0 0 0 0 0 
0 0 0 0 0 0 0 0 0 
0 0 0 0 0 0 0 0 0 
0 0 0 0 0 0 0 0 0 
0 0 0 0 0 0 0 0 0 
0 0 0 0 0 0 0 0 0 
0 0 0 0 0 0 0 0 0 
0 0 0 0 0 0 0 0 0 
0 0 0 0 0 0 0 0 0 

POINT_DATA 2160
NORMALS Normals float
-0.359529 -0.843443 0.399178 -0.359529 -0.843443 0.399178 -0.359529 -0.843443 0.399178 
0.124977 -0.721744 -0.680784 0.124977 -0.721744 -0.680784 0.124977 -0.721744 -0.680784 
-0.133273 -0.944214 -0.301161 -0.133273 -0.944214 -0.301161 -0.133273 -0.944214 -0.301161 
-0.139172 -0.986009 -0.0917434 -0.139172 -0.986009 -0.0917434 -0.139172 -0.986009 -0.0917434 
0.0714439 -0.993155 -0.0924083 0.0714439 -0.993155 -0.0924083 0.0714439 -0.993155 -0.0924083 
0.071735 -0.997201 -0.0210869 0.071735 -0.997201 -0.0210869 0.071735 -0.997201 -0.0210869 
-0.292793 -0.686881 0.665182 -0.292793 -0.686881 0.665182 -0.292793 -0.686881 0.665182 
0.264375 -0.834449 -0.48353 0.264375 -0.834449 -0.48353 0.264375 -0.834449 -0.48353 
0.419205 -0.817892 -0.394106 0.419205 -0.817892 -0.394106 0.419205 -0.817892 -0.394106 
0.45604 -0.88976 -0.0188149 0.45604 -0.88976 -0.0188149 0.45604 -0.88976 -0.0188149 
0.0582015 -0.774281 0.630159 0.0582015 -0.774281 0.630159 0.0582015 -0.774281 0.630159 
-0.350648 -0.738643 -0.575719 -0.350648 -0.738643 -0.575719 -0.350648 -0.738643 -0.575719 
-0.412085 -0.86806 -0.276871 -0.412085 -0.86806 -0.276871 -0.412085 -0.86806 -0.276871 
-0.575739 -0.773929 0.26374 -0.575739 -0.773929 0.26374 -0.575739 -0.773929 0.26374 
-0.38584 -0.518661 0.762967 -0.38584 -0.518661 0.762967 -0.38584 -0.518661 0.762967 
-0.689428 -0.666588 0.283461 -0.689428 -0.666588 0.283461 -0.689428 -0.666588 0.283461 
-0.460451 -0.409876 0.787393 -0.460451 -0.409876 0.787393 -0.460451 -0.409876 0.787393 
0.303196 -0.617726 -0.725594 0.303196 -0.617726 -0.725594 0.303196 -0.617726 -0.725594 
0.224586 -0.708864 -0.668635 0.224586 -0.708864 -0.668635 0.224586 -0.708864 -0.668635 
-0.295782 -0.602159 0.741564 -0.295782 -0.602159 0.741564 -0.295782 -0.602159 0.741564 
-0.376041 -0.605078 0.701765 -0.376041 -0.605078 0.701765 -0.376041 -0.605078 0.701765 
0.404479 -0.896179 -0.182372 0.404479 -0.896179 -0.182372 0.404479 -0.896179 -0.182372 
0.117046 -0.809598 0.575196 0.117046 -0.809598 0.575196 0.117046 -0.809598 0.575196 
-0.805912 -0.591974 0.00849876 -0.805912 -0.591974 0.00849876 -0.805912 -0.591974 0.00849876 
0.00508262 -0.603881 -0.797059 0.00508262 -0.603881 -0.797059 0.00508262 -0.603881 -0.797059 
0.00579386 -0.417637 -0.908596 0.00579386 -0.417637 -0.908596 0.00579386 -0.417637 -0.908596 
0.456886 -0.551744 -0.697734 0.456886 -0.551744 -0.697734 0.456886 -0.551744 -0.697734 
0.43013 -0.735937 0.522862 0.43013 -0.735937 0.522862 0.43013 -0.735937 0.522862 
0.556296 -0.814294 -0.165708 0.556296 -0.814294 -0.165708 0.556296 -0.814294 -0.165708 
-0.693003 -0.509039 -0.510515 -0.693003 -0.509039 -0.510515 -0.693003 -0.509039 -0.510515 
-0.430469 -0.561397 -0.706774 -0.430469 -0.561397 -0.706774 -0.430469 -0.561397 -0.706774 
-0.246863 -0.404718 -0.88049 -0.246863 -0.404718 -0.88049 -0.246863 -0.404718 -0.88049 
0.41954 -0.602081 -0.679327 0.41954 -0.602081 -0.679327 0.41954 -0.602081 -0.679327 
0.0252283 -0.335623 0.941658 0.0252283 -0.335623 0.941658 0.0252283 -0.335623 0.941658 
0.308083 -0.52712 0.791978 0.308083 -0.52712 0.791978 0.308083 -0.52712 0.791978 
0.0915177 -0.334321 0.938005 0.0915177 -0.334321 0.938005 0.0915177 -0.334321 0.938005 
0.554813 -0.669847 -0.493444 0.554813 -0.669847 -0.493444 0.554813 -0.669847 -0.493444 
0.533443 -0.780843 0.32515 0.533443 -0.780843 0.32515 0.533443 -0.780843 0.32515 
0.563917 -0.804913 -0.184698 0.563917 -0.804913 -0.184698 0.563917 -0.804913 -0.184698 
-0.867108 -0.394451 0.30419 -0.867108 -0.394451 0.30419 -0.867108 -0.394451 0.30419 
-0.883863 -0.381709 0.270341 -0.883863 -0.381709 0.270341 -0.883863 -0.381709 0.270341 
-0.642484 -0.0969667 -0.76014 -0.642484 -0.0969667 -0.76014 -0.642484 -0.0969667 -0.76014 
-0.760464 -0.328417 -0.560211 -0.760464 -0.328417 -0.560211 -0.760464 -0.328417 -0.560211 
-0.777384 -0.353635 0.520209 -0.777384 -0.353635 0.520209 -0.777384 -0.353635 0.520209 
-0.266381 -0.1623 -0.950105 -0.266381 -0.1623 -0.950105 -0.266381 -0.1623 -0.950105 
-0.375027 -0.117303 -0.919562 -0.375027 -0.117303 -0.919562 -0.375027 -0.117303 -0.919562 
-0.201643 -0.141769 -0.969145 -0.201643 -0.141769 -0.969145 -0.201643 -0.141769 -0.969145 
-0.463415 -0.188555 0.865848 -0.463415 -0.188555 0.865848 -0.463415 -0.188555 0.865848 
0.0777413 -0.323862 -0.942905 0.0777413 -0.323862 -0.942905 0.0777413 -0.323862 -0.942905 
-0.0354732 -0.34511 -0.937892 -0.0354732 -0.34511 -0.937892 -0.0354732 -0.34511 -0.937892 
0.190777 -0.388888 -0.901316 0.190777 -0.388888 -0.901316 0.190777 -0.388888 -0.901316 
-0.193846 -0.195201 0.961416 -0.193846 -0.195201 0.961416 -0.193846 -0.195201 0.961416 
0.689932 -0.668253 0.278267 0.689932 -0.668253 0.278267 0.689932 -0.668253 0.278267 
0.496543 -0.48094 0.722594 0.496543 -0.48094 0.722594 0.496543 -0.48094 0.722594 
-0.64719 -0.16221 0.744871 -0.64719 -0.16221 0.744871 -0.64719 -0.16221 0.744871 
-0.414372 -0.0513555 0.908657 -0.414372 -0.0513555 0.908657 -0.414372 -0.0513555 0.908657 
-0.2819 -0.0146184 0.959332 -0.2819 -0.0146184 0.959332 -0.2819 -0.0146184 0.959332 
0.0966497 -0.0967463 0.990605 0.0966497 -0.0967463 0.990605 0.0966497 -0.0967463 0.990605 
0.612996 -0.609524 -0.502709 0.612996 -0.609524 -0.502709 0.612996 -0.609524 -0.502709 
0.473764 -0.430098 0.768481 0.473764 -0.430098 0.768481 0.473764 -0.430098 0.768481 
0.71001 -0.701992 0.0556192 0.71001 -0.701992 0.0556192 0.71001 -0.701992 0.0556192 
0.713128 -0.691171 0.117179 0.713128 -0.691171 0.117179 0.713128 -0.691171 0.117179 
0.689443 -0.668215 0.279566 0.689443 -0.668215 0.279566 0.689443 -0.668215 0.279566 
-0.427247 0.0258179 0.903766 -0.427247 0.0258179 0.903766 -0.427247 0.0258179 0.903766 
0.249924 -0.366294 -0.896307 0.249924 -0.366294 -0.896307 0.249924 -0.366294 -0.896307 
0.411396 -0.506669 -0.757654 0.411396 -0.506669 -0.757654 0.411396 -0.506669 -0.757654 
0.159866 -0.0959512 0.982464 0.159866 -0.0959512 0.982464 0.159866 -0.0959512 0.982464 
-0.925322 0.252344 0.283021 -0.925322 0.252344 0.283021 -0.925322 0.252344 0.283021 
-0.778097 0.212195 0.591217 -0.778097 0.212195 0.591217 -0.778097 0.212195 0.591217 
-0.655724 0.0215593 0.754693 -0.655724 0.0215593 0.754693 -0.655724 0.0215593 0.754693 
-0.202035 -0.127634 -0.971026 -0.202035 -0.127634 -0.971026 -0.202035 -0.127634 -0.971026 
-0.237764 0.102533 0.965896 -0.237764 0.102533 0.965896 -0.237764 0.102533 0.965896 
-0.194918 0.12592 0.972703 -0.194918 0.12592 0.972703 -0.194918 0.12592 0.972703 
-0.0995053 0.102967 0.989695 -0.0995053 0.102967 0.989695 -0.0995053 0.102967 0.989695 
0.327354 -0.409076 -0.851761 0.327354 -0.409076 -0.851761 0.327354 -0.409076 -0.851761 
0.394512 -0.506895 -0.766432 0.394512 -0.506895 -0.766432 0.394512 -0.506895 -0.766432 
0.552808 -0.61938 -0.55747 0.552808 -0.61938 -0.55747 0.552808 -0.61938 -0.55747 
0.680989 -0.673298 -0.287966 0.680989 -0.673298 -0.287966 0.680989 -0.673298 -0.287966 
-0.946706 0.314052 0.0715485 -0.946706 0.314052 0.0715485 -0.946706 0.314052 0.0715485 
-0.715092 0.166298 -0.678961 -0.715092 0.166298 -0.678961 -0.715092 0.166298 -0.678961 
-0.837277 0.277751 -0.470979 -0.837277 0.277751 -0.470979 -0.837277 0.277751 -0.470979 
-0.395198 0.181153 0.900557 -0.395198 0.181153 0.900557 -0.395198 0.181153 0.900557 
0.0774291 -0.12993 -0.988495 0.0774291 -0.12993 -0.988495 0.0774291 -0.12993 -0.988495 
-0.314 0.231111 0.920865 -0.314 0.231111 0.920865 -0.314 0.231111 0.920865 
0.243 0.0800911 0.966714 0.243 0.0800911 0.966714 0.243 0.0800911 0.966714 
0.672502 -0.2012 0.712221 0.672502 -0.2012 0.712221 0.672502 -0.2012 0.712221 
0.519682 -0.139078 0.842964 0.519682 -0.139078 0.842964 0.519682 -0.139078 0.842964 
0.541673 -0.638715 -0.546474 0.541673 -0.638715 -0.546474 0.541673 -0.638715 -0.546474 
-0.523181 0.369752 0.767831 -0.523181 0.369752 0.767831 -0.523181 0.369752 0.767831 
-0.411356 0.324147 0.851889 -0.411356 0.324147 0.851889 -0.411356 0.324147 0.851889 
-0.273702 -0.0139984 -0.961713 -0.273702 -0.0139984 -0.961713 -0.273702 -0.0139984 -0.961713 
-0.377259 0.0445676 -0.925035 -0.377259 0.0445676 -0.925035 -0.377259 0.0445676 -0.925035 
0.0335636 -0.159364 -0.986649 0.0335636 -0.159364 -0.986649 0.0335636 -0.159364 -0.986649 
0.140516 -0.175602 -0.974381 0.140516 -0.175602 -0.974381 0.140516 -0.175602 -0.974381 
0.34064 -0.31366 -0.886331 0.34064 -0.31366 -0.886331 0.34064 -0.31366 -0.886331 
0.188731 0.188812 0.963707 0.188731 0.188812 0.963707 0.188731 0.188812 0.963707 
0.0265941 0.343968 0.938605 0.0265941 0.343968 0.938605 0.0265941 0.343968 0.938605 
0.924665 -0.349156 0.151938 0.924665 -0.349156 0.151938 0.924665 -0.349156 0.151938 
-0.247921 4.69649e-05 -0.96878 -0.247921 4.69649e-05 -0.96878 -0.247921 4.69649e-05 -0.96878 
-0.290214 0.414062 0.862745 -0.290214 0.414062 0.862745 -0.290214 0.414062 0.862745 
-0.0588177 -0.0664988 -0.996051 -0.0588177 -0.0664988 -0.996051 -0.0588177 -0.0664988 -0.996051 
-0.293021 0.419136 0.859339 -0.293021 0.419136 0.859339 -0.293021 0.419136 0.859339 
0.135331 -0.182445 -0.973858 0.135331 -0.182445 -0.973858 0.135331 -0.182445 -0.973858 
-0.184878 0.338561 0.922603 -0.184878 0.338561 0.922603 -0.184878 0.338561 0.922603 
-0.0446528 0.344156 0.93785 -0.0446528 0.344156 0.93785 -0.0446528 0.344156 0.93785 
0.125737 0.182545 0.975124 0.125737 0.182545 0.975124 0.125737 0.182545 0.975124 
0.398867 -0.490356 -0.774891 0.398867 -0.490356 -0.774891 0.398867 -0.490356 -0.774891 
0.824813 -0.565243 0.0136018 0.824813 -0.565243 0.0136018 0.824813 -0.565243 0.0136018 
0.613241 -0.229099 0.755942 0.613241 -0.229099 0.755942 0.613241 -0.229099 0.755942 
-0.739367 0.529492 -0.415903 -0.739367 0.529492 -0.415903 -0.739367 0.529492 -0.415903 
-0.704721 0.600155 0.378393 -0.704721 0.600155 0.378393 -0.704721 0.600155 0.378393 
-0.811488 0.581142 0.0613293 -0.811488 0.581142 0.0613293 -0.811488 0.581142 0.0613293 
-0.595499 0.50714 0.623049 -0.595499 0.50714 0.623049 -0.595499 0.50714 0.623049 
-0.532462 0.189419 -0.824987 -0.532462 0.189419 -0.824987 -0.532462 0.189419 -0.824987 
-0.231394 0.407221 0.883532 -0.231394 0.407221 0.883532 -0.231394 0.407221 0.883532 
0.71506 -0.614534 -0.333223 0.71506 -0.614534 -0.333223 0.71506 -0.614534 -0.333223 
0.78996 -0.597755 -0.136573 0.78996 -0.597755 -0.136573 0.78996 -0.597755 -0.136573 
0.784741 -0.593805 0.177698 0.784741 -0.593805 0.177698 0.784741 -0.593805 0.177698 
-0.656836 0.375106 -0.654111 -0.656836 0.375106 -0.654111 -0.656836 0.375106 -0.654111 
-0.866841 0.495036 -0.0593856 -0.866841 0.495036 -0.0593856 -0.866841 0.495036 -0.0593856 
-0.531034 0.180267 -0.827953 -0.531034 0.180267 -0.827953 -0.531034 0.180267 -0.827953 
-0.33413 0.200515 -0.920951 -0.33413 0.200515 -0.920951 -0.33413 0.200515 -0.920951 
-0.252436 0.610832 0.75044 -0.252436 0.610832 0.75044 -0.252436 0.610832 0.75044 
0.137061 -0.0916626 -0.986312 0.137061 -0.0916626 -0.986312 0.137061 -0.0916626 -0.986312 
-0.150421 0.525951 0.837108 -0.150421 0.525951 0.837108 -0.150421 0.525951 0.837108 
-0.101587 0.500729 0.859622 -0.101587 0.500729 0.859622 -0.101587 0.500729 0.859622 
0.17915 -0.378924 -0.907922 0.17915 -0.378924 -0.907922 0.17915 -0.378924 -0.907922 
0.261133 -0.473886 -0.840976 0.261133 -0.473886 -0.840976 0.261133 -0.473886 -0.840976 
0.493185 0.0603285 0.86783 0.493185 0.0603285 0.86783 0.493185 0.0603285 0.86783 
-0.29354 0.808639 0.50984 -0.29354 0.808639 0.50984 -0.29354 0.808639 0.50984 
-0.225466 0.393412 -0.891287 -0.225466 0.393412 -0.891287 -0.225466 0.393412 -0.891287 
-0.219057 0.685943 0.693899 -0.219057 0.685943 0.693899 -0.219057 0.685943 0.693899 
0.129107 -0.749636 -0.649136 0.129107 -0.749636 -0.649136 0.129107 -0.749636 -0.649136 
-0.15768 0.398758 -0.903399 -0.15768 0.398758 -0.903399 -0.15768 0.398758 -0.903399 
-0.0569876 0.255758 -0.96506 -0.0569876 0.255758 -0.96506 -0.0569876 0.255758 -0.96506 
0.0123611 0.222743 -0.974799 0.0123611 0.222743 -0.974799 0.0123611 0.222743 -0.974799 
-0.00137946 -0.162212 -0.986755 -0.00137946 -0.162212 -0.986755 -0.00137946 -0.162212 -0.986755 
0.0827982 0.332112 0.939599 0.0827982 0.332112 0.939599 0.0827982 0.332112 0.939599 
0.478213 -0.564683 -0.672641 0.478213 -0.564683 -0.672641 0.478213 -0.564683 -0.672641 
0.446491 -0.0624867 0.892604 0.446491 -0.0624867 0.892604 0.446491 -0.0624867 0.892604 
0.435139 -0.578905 -0.689582 0.435139 -0.578905 -0.689582 0.435139 -0.578905 -0.689582 
0.765792 -0.107173 0.634095 0.765792 -0.107173 0.634095 0.765792 -0.107173 0.634095 
0.855267 -0.517227 -0.031529 0.855267 -0.517227 -0.031529 0.855267 -0.517227 -0.031529 
-0.438834 0.892171 -0.107027 -0.438834 0.892171 -0.107027 -0.438834 0.892171 -0.107027 
-0.331175 0.912316 0.240836 -0.331175 0.912316 0.240836 -0.331175 0.912316 0.240836 
-0.471025 0.659627 -0.585686 -0.471025 0.659627 -0.585686 -0.471025 0.659627 -0.585686 
-0.432574 0.879445 -0.198637 -0.432574 0.879445 -0.198637 -0.432574 0.879445 -0.198637 
-0.246354 0.771419 0.586704 -0.246354 0.771419 0.586704 -0.246354 0.771419 0.586704 
0.172063 0.952458 0.251433 0.172063 0.952458 0.251433 0.172063 0.952458 0.251433 
-0.0658749 0.650418 -0.756714 -0.0658749 0.650418 -0.756714 -0.0658749 0.650418 -0.756714 
-0.0983135 0.970703 -0.219249 -0.0983135 0.970703 -0.219249 -0.0983135 0.970703 -0.219249 
-0.266723 0.859322 0.436377 -0.266723 0.859322 0.436377 -0.266723 0.859322 0.436377 
0.0115177 0.418184 -0.908289 0.0115177 0.418184 -0.908289 0.0115177 0.418184 -0.908289 
-0.245856 0.732759 0.634522 -0.245856 0.732759 0.634522 -0.245856 0.732759 0.634522 
-0.227709 0.623121 0.748244 -0.227709 0.623121 0.748244 -0.227709 0.623121 0.748244 
-0.25922 0.264119 -0.929003 -0.25922 0.264119 -0.929003 -0.25922 0.264119 -0.929003 
-0.0823528 0.0840551 -0.993052 -0.0823528 0.0840551 -0.993052 -0.0823528 0.0840551 -0.993052 
-0.140044 0.498373 0.855577 -0.140044 0.498373 0.855577 -0.140044 0.498373 0.855577 
0.0791833 -0.214698 -0.973466 0.0791833 -0.214698 -0.973466 0.0791833 -0.214698 -0.973466 
0.033055 0.386988 0.921492 0.033055 0.386988 0.921492 0.033055 0.386988 0.921492 
0.254123 -0.505809 -0.824366 0.254123 -0.505809 -0.824366 0.254123 -0.505809 -0.824366 
0.32698 0.239496 0.91418 0.32698 0.239496 0.91418 0.32698 0.239496 0.91418 
0.687831 -0.544858 -0.479603 0.687831 -0.544858 -0.479603 0.687831 -0.544858 -0.479603 
0.67568 -0.58069 -0.454153 0.67568 -0.58069 -0.454153 0.67568 -0.58069 -0.454153 
0.79856 -0.172201 0.576757 0.79856 -0.172201 0.576757 0.79856 -0.172201 0.576757 
0.74915 -0.133958 0.648713 0.74915 -0.133958 0.648713 0.74915 -0.133958 0.648713 
-0.193646 0.835948 -0.513509 -0.193646 0.835948 -0.513509 -0.193646 0.835948 -0.513509 
-0.225513 0.973514 0.0376024 -0.225513 0.973514 0.0376024 -0.225513 0.973514 0.0376024 
-0.15559 0.643896 -0.749126 -0.15559 0.643896 -0.749126 -0.15559 0.643896 -0.749126 
-0.204218 0.845138 -0.494001 -0.204218 0.845138 -0.494001 -0.204218 0.845138 -0.494001 
-0.313609 0.903119 0.293302 -0.313609 0.903119 0.293302 -0.313609 0.903119 0.293302 
-0.248461 0.715508 0.652928 -0.248461 0.715508 0.652928 -0.248461 0.715508 0.652928 
-0.26601 0.247059 -0.931773 -0.26601 0.247059 -0.931773 -0.26601 0.247059 -0.931773 
-0.655465 0.302655 -0.691929 -0.655465 0.302655 -0.691929 -0.655465 0.302655 -0.691929 
-0.0810269 -0.196927 -0.977064 -0.0810269 -0.196927 -0.977064 -0.0810269 -0.196927 -0.977064 
-0.100687 -0.18695 -0.977196 -0.100687 -0.18695 -0.977196 -0.100687 -0.18695 -0.977196 
0.0758421 -0.353411 -0.932389 0.0758421 -0.353411 -0.932389 0.0758421 -0.353411 -0.932389 
0.468006 -0.535566 -0.702951 0.468006 -0.535566 -0.702951 0.468006 -0.535566 -0.702951 
0.351584 -0.489588 -0.79793 0.351584 -0.489588 -0.79793 0.351584 -0.489588 -0.79793 
0.498756 -0.65555 -0.567006 0.498756 -0.65555 -0.567006 0.498756 -0.65555 -0.567006 
0.644075 -0.510198 -0.56997 0.644075 -0.510198 -0.56997 0.644075 -0.510198 -0.56997 
0.610506 0.0687818 0.78902 0.610506 0.0687818 0.78902 0.610506 0.0687818 0.78902 
0.89647 -0.440345 -0.0493683 0.89647 -0.440345 -0.0493683 0.89647 -0.440345 -0.0493683 
-0.680838 0.632334 -0.369613 -0.680838 0.632334 -0.369613 -0.680838 0.632334 -0.369613 
-0.628008 0.777627 0.0300361 -0.628008 0.777627 0.0300361 -0.628008 0.777627 0.0300361 
-0.619021 0.766498 0.171156 -0.619021 0.766498 0.171156 -0.619021 0.766498 0.171156 
-0.445 0.787657 0.426111 -0.445 0.787657 0.426111 -0.445 0.787657 0.426111 
-0.382693 0.5871 0.713344 -0.382693 0.5871 0.713344 -0.382693 0.5871 0.713344 
-0.239991 0.0483047 -0.969573 -0.239991 0.0483047 -0.969573 -0.239991 0.0483047 -0.969573 
0.0436905 0.39615 0.917146 0.0436905 0.39615 0.917146 0.0436905 0.39615 0.917146 
0.334939 0.244596 0.909939 0.334939 0.244596 0.909939 0.334939 0.244596 0.909939 
0.327314 0.244701 0.912681 0.327314 0.244701 0.912681 0.327314 0.244701 0.912681 
-0.50454 0.774028 0.382518 -0.50454 0.774028 0.382518 -0.50454 0.774028 0.382518 
-0.182837 0.576545 0.796346 -0.182837 0.576545 0.796346 -0.182837 0.576545 0.796346 
0.159884 -0.312324 -0.936424 0.159884 -0.312324 -0.936424 0.159884 -0.312324 -0.936424 
0.35333 -0.491086 -0.796236 0.35333 -0.491086 -0.796236 0.35333 -0.491086 -0.796236 
0.549692 -0.554366 -0.624913 0.549692 -0.554366 -0.624913 0.549692 -0.554366 -0.624913 
0.95628 -0.206211 0.207378 0.95628 -0.206211 0.207378 0.95628 -0.206211 0.207378 
-0.648292 0.5261 0.550397 -0.648292 0.5261 0.550397 -0.648292 0.5261 0.550397 
-0.0979695 -0.293845 -0.950819 -0.0979695 -0.293845 -0.950819 -0.0979695 -0.293845 -0.950819 
0.098245 -0.456162 -0.884457 0.098245 -0.456162 -0.884457 0.098245 -0.456162 -0.884457 
0.213041 -0.447857 -0.868354 0.213041 -0.447857 -0.868354 0.213041 -0.447857 -0.868354 
0.652351 0.106174 0.750444 0.652351 0.106174 0.750444 0.652351 0.106174 0.750444 
0.443952 0.30169 0.843736 0.443952 0.30169 0.843736 0.443952 0.30169 0.843736 
0.933309 -0.307525 -0.185371 0.933309 -0.307525 -0.185371 0.933309 -0.307525 -0.185371 
0.923388 -0.328398 0.198771 0.923388 -0.328398 0.198771 0.923388 -0.328398 0.198771 
0.731582 0.0634384 0.678796 0.731582 0.0634384 0.678796 0.731582 0.0634384 0.678796 
-0.826071 0.0617241 -0.560176 -0.826071 0.0617241 -0.560176 -0.826071 0.0617241 -0.560176 
-0.771956 0.626455 -0.107878 -0.771956 0.626455 -0.107878 -0.771956 0.626455 -0.107878 
-0.754534 -0.157609 -0.637054 -0.754534 -0.157609 -0.637054 -0.754534 -0.157609 -0.637054 
-0.259598 0.0193972 -0.965522 -0.259598 0.0193972 -0.965522 -0.259598 0.0193972 -0.965522 