# vtk DataFile Version 4.2
3D Slicer output. SPACE=LPS
ASCII
DATASET POLYDATA
POINTS 2100 double
5.4741973877 -6.0627679825 1.562166214 6.3815279007 -5.7774305344 0.62696266174 8.196187973 -5.8752193451 1.562166214 
7.2888584137 -5.7970538139 3.4325742722 5.4741973877 -6.0627679825 1.562166214 8.196187973 -5.8752193451 1.562166214 
2.7522063255 -4.5348491669 -0.3082408905 5.4741973877 -6.0627679825 1.562166214 2.7522063255 -4.6455001831 0.62696266174 
5.4741973877 -6.0627679825 1.562166214 5.4741973877 -5.6674561501 2.4973697662 2.7522063255 -4.6455001831 0.62696266174 
2.7522063255 -4.5348491669 -0.3082408905 4.5668668747 -5.1883807182 -0.3082408905 5.4741973877 -6.0627679825 1.562166214 
5.4741973877 -6.0627679825 1.562166214 4.5668668747 -5.1883807182 -0.3082408905 6.3815279007 -5.7774305344 0.62696266174 
7.2888584137 -5.7970538139 3.4325742722 5.4741973877 -5.6674561501 2.4973697662 5.4741973877 -6.0627679825 1.562166214 
6.3815279007 -3.3945202827 4.291932106 5.4741973877 -5.6674561501 2.4973697662 7.2888584137 -5.7970538139 3.4325742722 
7.2888584137 -5.7970538139 3.4325742722 8.196187973 -5.8752193451 1.562166214 9.103518486 -5.8572831154 3.4325742722 
9.103518486 -4.310986042 5.1013698578 7.2888584137 -5.7970538139 3.4325742722 9.103518486 -5.8572831154 3.4325742722 
10.918179512 -4.3097910881 1.562166214 10.010848999 -5.6194806099 3.4325742722 8.196187973 -5.8752193451 1.562166214 
8.196187973 -5.8752193451 1.562166214 10.010848999 -5.6194806099 3.4325742722 9.103518486 -5.8572831154 3.4325742722 
10.010848999 -5.6194806099 3.4325742722 10.010848999 -5.272834301 4.3677778244 9.103518486 -5.8572831154 3.4325742722 
9.103518486 -4.310986042 5.1013698578 9.103518486 -5.8572831154 3.4325742722 10.010848999 -5.272834301 4.3677778244 
2.7522063255 -4.5348491669 -0.3082408905 3.6595363617 -4.310986042 -0.9580116272 4.5668668747 -5.1883807182 -0.3082408905 
3.6595363617 -4.310986042 -0.9580116272 6.3815279007 -4.310986042 -0.74996805191 4.5668668747 -5.1883807182 -0.3082408905 
4.5668668747 -5.1883807182 -0.3082408905 6.3815279007 -4.310986042 -0.74996805191 6.3815279007 -5.7774305344 0.62696266174 
6.3815279007 -4.310986042 -0.74996805191 8.196187973 -3.3945202827 -0.78771734238 6.3815279007 -5.7774305344 0.62696266174 
7.2888584137 -5.7970538139 3.4325742722 9.103518486 -4.310986042 5.1013698578 6.3815279007 -3.3945202827 4.291932106 
6.3815279007 -5.7774305344 0.62696266174 8.196187973 -3.3945202827 -0.78771734238 8.196187973 -4.310986042 -0.19336700439 
8.196187973 -4.310986042 -0.19336700439 8.196187973 -5.8752193451 1.562166214 6.3815279007 -5.7774305344 0.62696266174 
8.196187973 -5.8752193451 1.562166214 8.196187973 -4.310986042 -0.19336700439 10.918179512 -4.3097910881 1.562166214 
10.918179512 -4.3097910881 1.562166214 13.642964363 -3.3945202827 3.4325742722 10.010848999 -5.6194806099 3.4325742722 
13.642964363 -3.3945202827 3.4325742722 12.732840538 -4.0292787552 4.3677778244 10.010848999 -5.6194806099 3.4325742722 
10.010848999 -5.6194806099 3.4325742722 12.732840538 -4.0292787552 4.3677778244 10.010848999 -5.272834301 4.3677778244 
1.8448758125 -2.4780540466 -1.4033727646 2.7522063255 -4.5348491669 -0.3082408905 0.36001110077 -0.64512252808 -0.3082408905 
2.7522063255 -4.5348491669 -0.3082408905 2.7522063255 -4.6455001831 0.62696266174 0.63075447083 -0.64512252808 0.62696266174 
0.36001110077 -0.64512252808 -0.3082408905 2.7522063255 -4.5348491669 -0.3082408905 0.63075447083 -0.64512252808 0.62696266174 
2.7522063255 -4.6455001831 0.62696266174 2.4800300598 -3.3945202827 1.562166214 0.63075447083 -0.64512252808 0.62696266174 
1.8448758125 -2.4780540466 -1.4033727646 3.6595363617 -2.4780540466 -1.788918972 3.6595363617 -4.310986042 -0.9580116272 
2.7522063255 -4.5348491669 -0.3082408905 1.8448758125 -2.4780540466 -1.4033727646 3.6595363617 -4.310986042 -0.9580116272 
5.4741973877 -5.6674561501 2.4973697662 2.4800300598 -3.3945202827 1.562166214 2.7522063255 -4.6455001831 0.62696266174 
3.6595363617 -2.4780540466 -1.788918972 5.4741973877 -2.4780540466 -1.7772231102 3.6595363617 -4.310986042 -0.9580116272 
2.4800300598 -3.3945202827 1.562166214 5.4741973877 -5.6674561501 2.4973697662 6.3815279007 -3.3945202827 4.291932106 
6.3815279007 -4.310986042 -0.74996805191 3.6595363617 -4.310986042 -0.9580116272 5.4741973877 -2.4780540466 -1.7772231102 
8.196187973 -3.3945202827 -0.78771734238 6.3815279007 -4.310986042 -0.74996805191 5.4741973877 -2.4780540466 -1.7772231102 
9.103518486 -4.310986042 5.1013698578 10.010848999 -5.272834301 4.3677778244 12.732840538 -2.4780540466 5.9947423935 
10.010848999 -5.272834301 4.3677778244 12.732840538 -4.0292787552 4.3677778244 12.732840538 -2.4780540466 5.9947423935 
12.732840538 -2.4780540466 5.9947423935 12.732840538 -4.0292787552 4.3677778244 14.547501564 -1.5615882874 6.0547771454 
14.156359673 -2.4780540466 2.4973697662 13.642964363 -3.3945202827 3.4325742722 10.918179512 -4.3097910881 1.562166214 
14.547501564 -2.8537893295 4.3677778244 12.732840538 -4.0292787552 4.3677778244 13.642964363 -3.3945202827 3.4325742722 
2.4800300598 -3.3945202827 1.562166214 1.8448758125 -1.5615882874 1.7014875412 0.63075447083 -0.64512252808 0.62696266174 
8.196187973 -3.3945202827 -0.78771734238 5.4741973877 -2.4780540466 -1.7772231102 8.196187973 -1.5615882874 -1.6553244591 
6.3815279007 -3.3945202827 4.291932106 9.103518486 -4.310986042 5.1013698578 8.196187973 -2.4780540466 5.2255716324 
9.103518486 -4.310986042 5.1013698578 10.010848999 -2.4780540466 5.720870018 8.196187973 -2.4780540466 5.2255716324 
8.196187973 -3.3945202827 -0.78771734238 12.732840538 -1.5615882874 0.43002700806 8.196187973 -4.310986042 -0.19336700439 
12.732840538 -2.4780540466 5.9947423935 10.010848999 -2.4780540466 5.720870018 9.103518486 -4.310986042 5.1013698578 
12.732840538 -1.5615882874 0.43002700806 10.918179512 -4.3097910881 1.562166214 8.196187973 -4.310986042 -0.19336700439 
12.732840538 -4.0292787552 4.3677778244 14.547501564 -2.8537893295 4.3677778244 14.547501564 -1.5615882874 6.0547771454 
3.6595363617 -2.4780540466 -1.788918972 1.8448758125 -2.4780540466 -1.4033727646 2.7522063255 -0.64512252808 -1.998336792 
1.8448758125 -1.5615882874 1.7014875412 2.4800300598 -3.3945202827 1.562166214 4.5668668747 -1.5615882874 3.4393768311 
7.2888584137 0.2713432312 -2.3872027397 5.4741973877 -2.4780540466 -1.7772231102 3.6595363617 -2.4780540466 -1.788918972 
2.4800300598 -3.3945202827 1.562166214 6.3815279007 -3.3945202827 4.291932106 4.5668668747 -1.5615882874 3.4393768311 
4.5668668747 -1.5615882874 3.4393768311 6.3815279007 -3.3945202827 4.291932106 6.3815279007 -0.64512252808 4.4262390137 
8.196187973 -2.4780540466 5.2255716324 6.3815279007 -0.64512252808 4.4262390137 6.3815279007 -3.3945202827 4.291932106 
8.196187973 -3.3945202827 -0.78771734238 8.196187973 -1.5615882874 -1.6553244591 12.732840538 1.1878089905 -0.9864449501 
8.196187973 -3.3945202827 -0.78771734238 12.732840538 1.1878089905 -0.9864449501 12.732840538 -1.5615882874 0.43002700806 
12.732840538 -2.4780540466 5.9947423935 13.640170097 -0.64512252808 6.3919963837 10.010848999 -2.4780540466 5.720870018 
12.732840538 -1.5615882874 0.43002700806 15.056368828 -0.64512252808 1.562166214 10.918179512 -4.3097910881 1.562166214 
14.547501564 -1.5615882874 6.0547771454 13.640170097 -0.64512252808 6.3919963837 12.732840538 -2.4780540466 5.9947423935 
15.056368828 -0.64512252808 1.562166214 14.156359673 -2.4780540466 2.4973697662 10.918179512 -4.3097910881 1.562166214 
14.156359673 -2.4780540466 2.4973697662 16.694480896 -0.64512252808 3.4325742722 13.642964363 -3.3945202827 3.4325742722 
13.642964363 -3.3945202827 3.4325742722 16.95772171 -0.64512252808 4.3677778244 14.547501564 -2.8537893295 4.3677778244 
16.694480896 -0.64512252808 3.4325742722 16.95772171 -0.64512252808 4.3677778244 13.642964363 -3.3945202827 3.4325742722 
14.547501564 -2.8537893295 4.3677778244 16.95772171 -0.64512252808 4.3677778244 14.547501564 -1.5615882874 6.0547771454 
1.8448758125 -2.4780540466 -1.4033727646 0.36001110077 -0.64512252808 -0.3082408905 1.8448758125 0.2713432312 -1.7432985306 
2.7522063255 -0.64512252808 -1.998336792 1.8448758125 -2.4780540466 -1.4033727646 1.8448758125 0.2713432312 -1.7432985306 
8.196187973 -1.5615882874 -1.6553244591 5.4741973877 -2.4780540466 -1.7772231102 7.2888584137 0.2713432312 -2.3872027397 
10.918179512 2.1042757034 5.5061826706 6.3815279007 -0.64512252808 4.4262390137 8.196187973 -2.4780540466 5.2255716324 
8.196187973 -2.4780540466 5.2255716324 11.825509071 0.2713432312 6.1670370102 10.918179512 2.1042757034 5.5061826706 
10.010848999 -2.4780540466 5.720870018 11.825509071 0.2713432312 6.1670370102 8.196187973 -2.4780540466 5.2255716324 
13.640170097 -0.64512252808 6.3919963837 11.825509071 0.2713432312 6.1670370102 10.010848999 -2.4780540466 5.720870018 
14.547501564 0.2713432312 0.54779434204 12.732840538 -1.5615882874 0.43002700806 12.732840538 1.1878089905 -0.9864449501 
15.056368828 -0.64512252808 1.562166214 12.732840538 -1.5615882874 0.43002700806 14.547501564 0.2713432312 0.54779434204 
14.156359673 -2.4780540466 2.4973697662 15.056368828 -0.64512252808 1.562166214 19.991481781 3.5395174026 2.4973697662 
14.156359673 -2.4780540466 2.4973697662 19.991481781 3.5395174026 2.4973697662 16.694480896 -0.64512252808 3.4325742722 
0.63075447083 -0.64512252808 0.62696266174 0.57173490524 0.2713432312 0.62696266174 0.36001110077 -0.64512252808 -0.3082408905 
0.57173490524 0.2713432312 0.62696266174 0.63075447083 -0.64512252808 0.62696266174 1.8448758125 -1.5615882874 1.7014875412 
1.8448758125 -1.5615882874 1.7014875412 4.5668668747 -1.5615882874 3.4393768311 1.8448758125 1.1878089905 1.7776155472 
6.3815279007 -0.64512252808 4.4262390137 1.8448758125 1.1878089905 1.7776155472 4.5668668747 -1.5615882874 3.4393768311 
14.547501564 -1.5615882874 6.0547771454 16.362159729 1.1878089905 6.1735725403 13.640170097 -0.64512252808 6.3919963837 
[...]
CELL_DATA 700
FIELD FieldData 1
GroupIds 1 700 float
0 0 0 0 0 0 0 0 0 
0 0 0 0 0 0 0 0 0 
0 0 0 0 0 0 0 0 0 
0 0 0 0 0 0 0 0 0 
0 0 0 0 0 0 0 0 0 
0 0 0 0 0 0 0 0 0 
0 0 0 0 0 0 0 0 0 
0 0 0 0 0 0 0 0 0 
0 0 0 0 0 0 0 0 0 
0 0 0 0 0 0 0 0 0 
0 0 0 0 0 0 0 0 0 
0 0 0 0 0 0 0 0 0 
0 0 0 0 0 0 0 0 0 
0 0 0 0 0 0 0 0 0 
0 0 0 0 0 0 0 0 0 
0 0 0 0 0 0 0 0 0 
0 0 0 0 0 0 0 0 0 
0 0 0 0 0 0 0 0 0 
0 0 0 0 0 0 0 0 0 
0 0 0 0 0 0 0 0 0 
0 0 0 0 0 0 0 0 0 
0 0 0 0 0 0 0 0 0 
0 0 0 0 0 0 0 0 0 
0 0 0 0 0 0 0 0 0 
0 0 0 0 0 0 0 0 0 
0 0 0 0 0 0 0 0 0 
0 0 0 0 0 0 0 0 0 
0 0 0 0 0 0 0 0 0 
0 0 0 0 0 0 0 0 0 
0 0 0 0 0 0 0 0 0 
0 0 0 0 0 0 0 0 0 
0 0 0 0 0 0 0 0 0 
0 0 0 0 0 0 0 0 0 
0 0 0 0 0 0 0 0 0 
0 0 0 0 0 0 0 0 0 
0 0 0 0 0 0 0 0 0 
0 0 0 0 0 0 0 0 0 
0 0 0 0 0 0 0 0 0 
0 0 0 0 0 0 0 0 0 
0 0 0 0 0 0 0 0 0 
0 0 0 0 0 0 0 0 0 
0 0 0 0 0 0 0 0 0 
0 0 0 0 0 0 0 0 0 
0 0 0 0 0 0 0 0 0 
0 0 0 0 0 0 0 0 0 
0 0 0 0 0 0 0 0 0 
0 0 0 0 0 0 0 0 0 
0 0 0 0 0 0 0 0 0 
0 0 0 0 0 0 0 0 0 
0 0 0 0 0 0 0 0 0 
0 0 0 0 0 0 0 0 0 
0 0 0 0 0 0 0 0 0 
0 0 0 0 0 0 0 0 0 
0 0 0 0 0 0 0 0 0 
0 0 0 0 0 0 0 0 0 
0 0 0 0 0 0 0 0 0 
0 0 0 0 0 0 0 0 0 
0 0 0 0 0 0 0 0 0 
0 0 0 0 0 0 0 0 0 
0 0 0 0 0 0 0 0 0 
0 0 0 0 0 0 0 0 0 
0 0 0 0 0 0 0 0 0 
0 0 0 0 0 0 0 0 0 
0 0 0 0 0 0 0 0 0 
0 0 0 0 0 0 0 0 0 
0 0 0 0 0 0 0 0 0 
0 0 0 0 0 0 0 0 0 
0 0 0 0 0 0 0 0 0 
0 0 0 0 0 0 0 0 0 
0 0 0 0 0 0 0 0 0 
0 0 0 0 0 0 0 0 0 
0 0 0 0 0 0 0 0 0 
0 0 0 0 0 0 0 0 0 
0 0 0 0 0 0 0 0 0 
0 0 0 0 0 0 0 0 0 
0 0 0 0 0 0 0 0 0 
0 0 0 0 0 0 0 0 0 
0 0 0 0 0 0 0 
POINT_DATA 2100
NORMALS Normals float
0.0668751 -0.970592 -0.231253 0.0668751 -0.970592 -0.231253 0.0668751 -0.970592 -0.231253 
0.0685456 -0.994838 0.0748262 0.0685456 -0.994838 0.0748262 0.0685456 -0.994838 0.0748262 
-0.430307 -0.89643 -0.106063 -0.430307 -0.89643 -0.106063 -0.430307 -0.89643 -0.106063 
-0.522843 -0.785165 0.33189 -0.522843 -0.785165 0.33189 -0.522843 -0.785165 0.33189 
-0.326669 -0.907061 -0.265571 -0.326669 -0.907061 -0.265571 -0.326669 -0.907061 -0.265571 
-0.102571 -0.919284 -0.379994 -0.102571 -0.919284 -0.379994 -0.102571 -0.919284 -0.379994 
-0.257454 -0.890042 0.376222 -0.257454 -0.890042 0.376222 -0.257454 -0.890042 0.376222 
-0.43525 -0.444433 0.782967 -0.43525 -0.444433 0.782967 -0.43525 -0.444433 0.782967 
-0.0331612 -0.99912 0.0256675 -0.0331612 -0.99912 0.0256675 -0.0331612 -0.99912 0.0256675 
-0.0243385 -0.733299 0.679471 -0.0243385 -0.733299 0.679471 -0.0243385 -0.733299 0.679471 
0.468295 -0.814279 -0.343002 0.468295 -0.814279 -0.343002 0.468295 -0.814279 -0.343002 
0.251904 -0.961135 -0.112981 0.251904 -0.961135 -0.112981 0.251904 -0.961135 -0.112981 
0.23865 -0.910566 0.337514 0.23865 -0.910566 0.337514 0.23865 -0.910566 0.337514 
-0.222354 -0.715153 0.662657 -0.222354 -0.715153 0.662657 -0.222354 -0.715153 0.662657 
-0.264936 -0.735648 -0.623403 -0.264936 -0.735648 -0.623403 -0.264936 -0.735648 -0.623403 
0.0636157 -0.550613 -0.832333 0.0636157 -0.550613 -0.832333 0.0636157 -0.550613 -0.832333 
0.151728 -0.676582 -0.720566 0.151728 -0.676582 -0.720566 0.151728 -0.676582 -0.720566 
0.313835 -0.649924 -0.692175 0.313835 -0.649924 -0.692175 0.313835 -0.649924 -0.692175 
-0.388368 -0.436883 0.811359 -0.388368 -0.436883 0.811359 -0.388368 -0.436883 0.811359 
0.060317 -0.543127 -0.837481 0.060317 -0.543127 -0.837481 0.060317 -0.543127 -0.837481 
0.289641 -0.714611 -0.63674 0.289641 -0.714611 -0.63674 0.289641 -0.714611 -0.63674 
0.394548 -0.686046 -0.611288 0.394548 -0.686046 -0.611288 0.394548 -0.686046 -0.611288 
0.493999 -0.806424 -0.325033 0.493999 -0.806424 -0.325033 0.493999 -0.806424 -0.325033 
0.521071 -0.850617 -0.0702494 0.521071 -0.850617 -0.0702494 0.521071 -0.850617 -0.0702494 
0.393766 -0.861906 0.319478 0.393766 -0.861906 0.319478 0.393766 -0.861906 0.319478 
-0.820649 -0.504702 -0.267976 -0.820649 -0.504702 -0.267976 -0.820649 -0.504702 -0.267976 
-0.882104 -0.467791 -0.0553479 -0.882104 -0.467791 -0.0553479 -0.882104 -0.467791 -0.0553479 
-0.827028 -0.508625 0.239426 -0.827028 -0.508625 0.239426 -0.827028 -0.508625 0.239426 
-0.828673 -0.439456 0.346668 -0.828673 -0.439456 0.346668 -0.828673 -0.439456 0.346668 
-0.189983 -0.405359 -0.894198 -0.189983 -0.405359 -0.894198 -0.189983 -0.405359 -0.894198 
-0.386324 -0.560466 -0.732552 -0.386324 -0.560466 -0.732552 -0.386324 -0.560466 -0.732552 
-0.601987 -0.557986 0.571194 -0.601987 -0.557986 0.571194 -0.601987 -0.557986 0.571194 
0.0058701 -0.412872 -0.91077 0.0058701 -0.412872 -0.91077 0.0058701 -0.412872 -0.91077 
-0.52892 -0.385714 0.755955 -0.52892 -0.385714 0.755955 -0.52892 -0.385714 0.755955 
0.0675832 -0.462113 -0.884242 0.0675832 -0.462113 -0.884242 0.0675832 -0.462113 -0.884242 
0.187458 -0.407983 -0.893538 0.187458 -0.407983 -0.893538 0.187458 -0.407983 -0.893538 
0.0778553 -0.557127 0.82677 0.0778553 -0.557127 0.82677 0.0778553 -0.557127 0.82677 
0.313934 -0.687163 0.655174 0.313934 -0.687163 0.655174 0.313934 -0.687163 0.655174 
0.324183 -0.684666 0.652793 0.324183 -0.684666 0.652793 0.324183 -0.684666 0.652793 
0.535619 -0.731175 -0.422488 0.535619 -0.731175 -0.422488 0.535619 -0.731175 -0.422488 
0.543227 -0.838607 -0.0405352 0.543227 -0.838607 -0.0405352 0.543227 -0.838607 -0.0405352 
-0.749768 -0.304468 0.587492 -0.749768 -0.304468 0.587492 -0.749768 -0.304468 0.587492 
0.181461 -0.420732 -0.888851 0.181461 -0.420732 -0.888851 0.181461 -0.420732 -0.888851 
-0.348692 -0.234103 0.907529 -0.348692 -0.234103 0.907529 -0.348692 -0.234103 0.907529 
-0.258408 -0.192069 0.94675 -0.258408 -0.192069 0.94675 -0.258408 -0.192069 0.94675 
0.406599 -0.49711 -0.766524 0.406599 -0.49711 -0.766524 0.406599 -0.49711 -0.766524 
-0.0962316 -0.275623 0.956437 -0.0962316 -0.275623 0.956437 -0.0962316 -0.275623 0.956437 
0.44333 -0.575749 -0.687001 0.44333 -0.575749 -0.687001 0.44333 -0.575749 -0.687001 
0.457322 -0.70599 0.540772 0.457322 -0.70599 0.540772 0.457322 -0.70599 0.540772 
-0.203195 -0.209855 -0.956385 -0.203195 -0.209855 -0.956385 -0.203195 -0.209855 -0.956385 
-0.522 -0.24303 0.817589 -0.522 -0.24303 0.817589 -0.522 -0.24303 0.817589 
0.00628638 -0.220541 -0.975357 0.00628638 -0.220541 -0.975357 0.00628638 -0.220541 -0.975357 
-0.563569 -0.183298 0.805476 -0.563569 -0.183298 0.805476 -0.563569 -0.183298 0.805476 
-0.460331 -0.0433144 0.88669 -0.460331 -0.0433144 0.88669 -0.460331 -0.0433144 0.88669 
-0.439468 -0.0438273 0.897189 -0.439468 -0.0438273 0.897189 -0.439468 -0.0438273 0.897189 
0.365404 -0.39825 -0.841354 0.365404 -0.39825 -0.841354 0.365404 -0.39825 -0.841354 
0.390093 -0.421703 -0.818532 0.390093 -0.421703 -0.818532 0.390093 -0.421703 -0.818532 
-0.0987564 -0.163843 0.981531 -0.0987564 -0.163843 0.981531 -0.0987564 -0.163843 0.981531 
0.529204 -0.597583 -0.60236 0.529204 -0.597583 -0.60236 0.529204 -0.597583 -0.60236 
0.0979088 -0.256849 0.961479 0.0979088 -0.256849 0.961479 0.0979088 -0.256849 0.961479 
0.510334 -0.576276 -0.63833 0.510334 -0.576276 -0.63833 0.510334 -0.576276 -0.63833 
0.629688 -0.698882 -0.339201 0.629688 -0.698882 -0.339201 0.629688 -0.698882 -0.339201 
0.658822 -0.718943 -0.221528 0.658822 -0.718943 -0.221528 0.658822 -0.718943 -0.221528 
0.657798 -0.730081 -0.185157 0.657798 -0.730081 -0.185157 0.657798 -0.730081 -0.185157 
0.588283 -0.641968 0.491732 0.588283 -0.641968 0.491732 0.588283 -0.641968 0.491732 
-0.662072 -0.091958 -0.743777 -0.662072 -0.091958 -0.743777 -0.662072 -0.091958 -0.743777 
-0.373708 -0.113812 -0.920537 -0.373708 -0.113812 -0.920537 -0.373708 -0.113812 -0.920537 
0.144634 -0.304346 -0.941517 0.144634 -0.304346 -0.941517 0.144634 -0.304346 -0.941517 
-0.29743 0.118666 0.94734 -0.29743 0.118666 0.94734 -0.29743 0.118666 0.94734 
-0.356764 0.155515 0.921159 -0.356764 0.155515 0.921159 -0.356764 0.155515 0.921159 
-0.263272 0.0172366 0.964568 -0.263272 0.0172366 0.964568 -0.263272 0.0172366 0.964568 
-0.152362 -0.0595298 0.98653 -0.152362 -0.0595298 0.98653 -0.152362 -0.0595298 0.98653 
0.461554 -0.406285 -0.788606 0.461554 -0.406285 -0.788606 0.461554 -0.406285 -0.788606 
0.529951 -0.479738 -0.699288 0.529951 -0.479738 -0.699288 0.529951 -0.479738 -0.699288 
0.595451 -0.577397 -0.558615 0.595451 -0.577397 -0.558615 0.595451 -0.577397 -0.558615 
0.619933 -0.601137 -0.504299 0.619933 -0.601137 -0.504299 0.619933 -0.601137 -0.504299 
-0.958724 -0.061741 0.277553 -0.958724 -0.061741 0.277553 -0.958724 -0.061741 0.277553 
-0.680454 -0.0438206 0.73148 -0.680454 -0.0438206 0.73148 -0.680454 -0.0438206 0.73148 
-0.537988 -0.0233316 0.84263 -0.537988 -0.0233316 0.84263 -0.537988 -0.0233316 0.84263 
-0.492245 0.0382648 0.869615 -0.492245 0.0382648 0.869615 -0.492245 0.0382648 0.869615 
0.19038 -0.167451 0.967324 0.19038 -0.167451 0.967324 0.19038 -0.167451 0.967324 
0.561161 -0.718097 0.411624 0.561161 -0.718097 0.411624 0.561161 -0.718097 0.411624 
-0.662113 -0.0207423 0.749117 -0.662113 -0.0207423 0.749117 -0.662113 -0.0207423 0.749117 
-0.238009 0.0344801 -0.970651 -0.238009 0.0344801 -0.970651 -0.238009 0.0344801 -0.970651 
-0.0557675 -0.14146 -0.988372 -0.0557675 -0.14146 -0.988372 -0.0557675 -0.14146 -0.988372 
-0.0565739 -0.140933 -0.988401 -0.0565739 -0.140933 -0.988401 -0.0565739 -0.140933 -0.988401 
0.419534 -0.313706 0.85181 0.419534 -0.313706 0.85181 0.419534 -0.313706 0.85181 
-0.751025 0.281848 -0.597096 -0.751025 0.281848 -0.597096 -0.751025 0.281848 -0.597096 
-0.928147 0.348319 -0.131214 -0.928147 0.348319 -0.131214 -0.928147 0.348319 -0.131214 
-0.424444 0.219014 0.878567 -0.424444 0.219014 0.878567 -0.424444 0.219014 0.878567 
-0.121713 -0.0608116 -0.990701 -0.121713 -0.0608116 -0.990701 -0.121713 -0.0608116 -0.990701 
-0.361366 0.242643 0.900299 -0.361366 0.242643 0.900299 -0.361366 0.242643 0.900299 
0.259037 -0.244841 -0.93432 0.259037 -0.244841 -0.93432 0.259037 -0.244841 -0.93432 
0.199037 -0.138845 -0.970106 0.199037 -0.138845 -0.970106 0.199037 -0.138845 -0.970106 
0.303421 -0.279008 -0.911093 0.303421 -0.279008 -0.911093 0.303421 -0.279008 -0.911093 
-0.146015 0.27078 0.951503 -0.146015 0.27078 0.951503 -0.146015 0.27078 0.951503 
-0.0662816 0.112131 0.99148 -0.0662816 0.112131 0.99148 -0.0662816 0.112131 0.99148 
0.0607032 0.0287501 0.997742 0.0607032 0.0287501 0.997742 0.0607032 0.0287501 0.997742 
0.535397 -0.4754 -0.698101 0.535397 -0.4754 -0.698101 0.535397 -0.4754 -0.698101 
-0.748359 0.291641 0.595738 -0.748359 0.291641 0.595738 -0.748359 0.291641 0.595738 
-0.600404 0.351615 0.718249 -0.600404 0.351615 0.718249 -0.600404 0.351615 0.718249 
-0.447309 0.286421 0.847277 -0.447309 0.286421 0.847277 -0.447309 0.286421 0.847277 
-0.249146 0.416294 0.874429 -0.249146 0.416294 0.874429 -0.249146 0.416294 0.874429 
-0.146155 0.267477 0.952415 -0.146155 0.267477 0.952415 -0.146155 0.267477 0.952415 
0.445153 -0.281717 0.849985 0.445153 -0.281717 0.849985 0.445153 -0.281717 0.849985 
0.339741 -0.240333 0.909294 0.339741 -0.240333 0.909294 0.339741 -0.240333 0.909294 
0.741935 -0.637117 -0.20884 0.741935 -0.637117 -0.20884 0.741935 -0.637117 -0.20884 
0.69221 -0.489669 0.530159 0.69221 -0.489669 0.530159 0.69221 -0.489669 0.530159 
0.737118 -0.632981 0.236628 0.737118 -0.632981 0.236628 0.737118 -0.632981 0.236628 
-0.92885 0.361979 -0.0788008 -0.92885 0.361979 -0.0788008 -0.92885 0.361979 -0.0788008 
-0.583313 0.328215 -0.742981 -0.583313 0.328215 -0.742981 -0.583313 0.328215 -0.742981 
-0.39924 0.258381 -0.879686 -0.39924 0.258381 -0.879686 -0.39924 0.258381 -0.879686 
0.0368575 0.0964164 -0.994658 0.0368575 0.0964164 -0.994658 0.0368575 0.0964164 -0.994658 
-0.32476 0.375053 0.868255 -0.32476 0.375053 0.868255 -0.32476 0.375053 0.868255 
0.398808 -0.221766 -0.889816 0.398808 -0.221766 -0.889816 0.398808 -0.221766 -0.889816 
0.378363 -0.205521 -0.902553 0.378363 -0.205521 -0.902553 0.378363 -0.205521 -0.902553 
0.464937 -0.400885 -0.789382 0.464937 -0.400885 -0.789382 0.464937 -0.400885 -0.789382 
-0.0911828 0.256271 0.962295 -0.0911828 0.256271 0.962295 -0.0911828 0.256271 0.962295 
0.102193 0.0699977 0.992299 0.102193 0.0699977 0.992299 0.102193 0.0699977 0.992299 
0.131053 0.0554113 0.989826 0.131053 0.0554113 0.989826 0.131053 0.0554113 0.989826 
0.556602 -0.562397 -0.611476 0.556602 -0.562397 -0.611476 0.556602 -0.562397 -0.611476 
0.734452 -0.633224 -0.244146 0.734452 -0.633224 -0.244146 0.734452 -0.633224 -0.244146 
0.74224 -0.639939 -0.198892 0.74224 -0.639939 -0.198892 0.74224 -0.639939 -0.198892 
0.839833 -0.4777 0.257844 0.839833 -0.4777 0.257844 0.839833 -0.4777 0.257844 
0.72355 -0.411558 0.554162 0.72355 -0.411558 0.554162 0.72355 -0.411558 0.554162 
-0.740241 0.665176 0.0978954 -0.740241 0.665176 0.0978954 -0.740241 0.665176 0.0978954 
-0.676336 0.607752 -0.416182 -0.676336 0.607752 -0.416182 -0.676336 0.607752 -0.416182 
-0.325708 0.50715 0.797943 -0.325708 0.50715 0.797943 -0.325708 0.50715 0.797943 
-0.330677 0.506224 0.796486 -0.330677 0.506224 0.796486 -0.330677 0.506224 0.796486 
-0.0502245 0.180966 -0.982206 -0.0502245 0.180966 -0.982206 -0.0502245 0.180966 -0.982206 
0.196752 0.0420008 -0.979553 0.196752 0.0420008 -0.979553 0.196752 0.0420008 -0.979553 
0.200861 0.0350111 -0.978994 0.200861 0.0350111 -0.978994 0.200861 0.0350111 -0.978994 
0.290917 0.0341936 -0.956137 0.290917 0.0341936 -0.956137 0.290917 0.0341936 -0.956137 
-0.262428 0.481985 0.835956 -0.262428 0.481985 0.835956 -0.262428 0.481985 0.835956 
0.461323 -0.398438 -0.792735 0.461323 -0.398438 -0.792735 0.461323 -0.398438 -0.792735 
0.525192 -0.150665 0.83754 0.525192 -0.150665 0.83754 0.525192 -0.150665 0.83754 
-0.545478 0.670597 0.502746 -0.545478 0.670597 0.502746 -0.545478 0.670597 0.502746 
-0.475991 0.159352 -0.864893 -0.475991 0.159352 -0.864893 -0.475991 0.159352 -0.864893 
-0.297854 0.554793 0.776844 -0.297854 0.554793 0.776844 -0.297854 0.554793 0.776844 
0.282594 -0.00238853 -0.959237 0.282594 -0.00238853 -0.959237 0.282594 -0.00238853 -0.959237 
-0.269305 0.437657 0.857864 -0.269305 0.437657 0.857864 -0.269305 0.437657 0.857864 
0.313833 -0.323021 -0.892842 0.313833 -0.323021 -0.892842 0.313833 -0.323021 -0.892842 
-0.0821633 0.272475 0.958648 -0.0821633 0.272475 0.958648 -0.0821633 0.272475 0.958648 
0.324047 -0.326009 -0.888094 0.324047 -0.326009 -0.888094 0.324047 -0.326009 -0.888094 
0.172974 0.0976472 0.980074 0.172974 0.0976472 0.980074 0.172974 0.0976472 0.980074 
0.681131 -0.596692 -0.424286 0.681131 -0.596692 -0.424286 0.681131 -0.596692 -0.424286 
0.65637 -0.510719 -0.555288 0.65637 -0.510719 -0.555288 0.65637 -0.510719 -0.555288 
0.743614 -0.578603 -0.335047 0.743614 -0.578603 -0.335047 0.743614 -0.578603 -0.335047 
-0.585174 0.726574 -0.360085 -0.585174 0.726574 -0.360085 -0.585174 0.726574 -0.360085 
-0.497164 0.685884 0.531404 -0.497164 0.685884 0.531404 -0.497164 0.685884 0.531404 
-0.396978 0.813856 0.424319 -0.396978 0.813856 0.424319 -0.396978 0.813856 0.424319 
-0.413687 0.513649 -0.751683 -0.413687 0.513649 -0.751683 -0.413687 0.513649 -0.751683 
-0.229414 0.82093 0.522918 -0.229414 0.82093 0.522918 -0.229414 0.82093 0.522918 
-0.187163 0.679795 -0.709119 -0.187163 0.679795 -0.709119 -0.187163 0.679795 -0.709119 
-0.0394152 0.635837 -0.770816 -0.0394152 0.635837 -0.770816 -0.0394152 0.635837 -0.770816 
-0.223753 0.780622 0.583579 -0.223753 0.780622 0.583579 -0.223753 0.780622 0.583579 
-0.315789 0.651946 0.689379 -0.315789 0.651946 0.689379 -0.315789 0.651946 0.689379 
0.0897189 -0.102528 -0.990676 0.0897189 -0.102528 -0.990676 0.0897189 -0.102528 -0.990676 
0.0897754 -0.102546 -0.990669 0.0897754 -0.102546 -0.990669 0.0897754 -0.102546 -0.990669 
0.459835 -0.459693 -0.759759 0.459835 -0.459693 -0.759759 0.459835 -0.459693 -0.759759 
0.014794 0.25091 0.967897 0.014794 0.25091 0.967897 0.014794 0.25091 0.967897 
0.525578 -0.460422 -0.715388 0.525578 -0.460422 -0.715388 0.525578 -0.460422 -0.715388 
0.898156 -0.404745 0.171747 0.898156 -0.404745 0.171747 0.898156 -0.404745 0.171747 
-0.436715 0.895322 0.0876294 -0.436715 0.895322 0.0876294 -0.436715 0.895322 0.0876294 
-0.264012 0.958918 -0.103799 -0.264012 0.958918 -0.103799 -0.264012 0.958918 -0.103799 
-0.0538192 0.992958 0.105537 -0.0538192 0.992958 0.105537 -0.0538192 0.992958 0.105537 
-0.0517133 0.954103 0.29498 -0.0517133 0.954103 0.29498 -0.0517133 0.954103 0.29498 
0.108032 0.685212 -0.720287 0.108032 0.685212 -0.720287 0.108032 0.685212 -0.720287 
-0.0864731 0.986805 0.136887 -0.0864731 0.986805 0.136887 -0.0864731 0.986805 0.136887 
-0.0856548 0.977467 -0.192927 -0.0856548 0.977467 -0.192927 -0.0856548 0.977467 -0.192927 
-0.190671 0.955139 0.226616 -0.190671 0.955139 0.226616 -0.190671 0.955139 0.226616 
-0.285443 0.876986 0.386547 -0.285443 0.876986 0.386547 -0.285443 0.876986 0.386547 
0.151762 0.637253 -0.755564 0.151762 0.637253 -0.755564 0.151762 0.637253 -0.755564 
-0.114223 0.640501 -0.759415 -0.114223 0.640501 -0.759415 -0.114223 0.640501 -0.759415 
-0.172341 0.966393 -0.190742 -0.172341 0.966393 -0.190742 -0.172341 0.966393 -0.190742 
0.0327846 0.600029 -0.799306 0.0327846 0.600029 -0.799306 0.0327846 0.600029 -0.799306 
-0.266627 0.136259 -0.954119 -0.266627 0.136259 -0.954119 -0.266627 0.136259 -0.954119 
-0.466654 0.561191 0.683592 -0.466654 0.561191 0.683592 -0.466654 0.561191 0.683592 
-0.281255 0.463264 0.840406 -0.281255 0.463264 0.840406 -0.281255 0.463264 0.840406 
-0.0277627 0.231015 0.972554 -0.0277627 0.231015 0.972554 -0.0277627 0.231015 0.972554 
0.451466 -0.00812314 0.892251 0.451466 -0.00812314 0.892251 0.451466 -0.00812314 0.892251 
0.414736 -0.0879436 0.905682 0.414736 -0.0879436 0.905682 0.414736 -0.0879436 0.905682 
-0.517691 0.776091 0.360111 -0.517691 0.776091 0.360111 -0.517691 0.776091 0.360111 
-0.600179 0.756868 0.258721 -0.600179 0.756868 0.258721 -0.600179 0.756868 0.258721 
-0.24874 0.340298 -0.906822 -0.24874 0.340298 -0.906822 -0.24874 0.340298 -0.906822 
-0.476421 0.600799 0.641922 -0.476421 0.600799 0.641922 -0.476421 0.600799 0.641922 
-0.0334704 0.141298 -0.989401 -0.0334704 0.141298 -0.989401 -0.0334704 0.141298 -0.989401 
0.0328569 0.219588 0.975039 0.0328569 0.219588 0.975039 0.0328569 0.219588 0.975039 
0.739871 -0.479917 -0.471456 0.739871 -0.479917 -0.471456 0.739871 -0.479917 -0.471456 
0.876067 -0.463195 0.134007 0.876067 -0.463195 0.134007 0.876067 -0.463195 0.134007 
0.610136 -0.147826 0.778384 0.610136 -0.147826 0.778384 0.610136 -0.147826 0.778384 
-0.511767 0.76721 -0.386631 -0.511767 0.76721 -0.386631 -0.511767 0.76721 -0.386631 
-0.507758 0.694656 -0.509544 -0.507758 0.694656 -0.509544 -0.507758 0.694656 -0.509544 
-0.381615 0.369837 -0.847107 -0.381615 0.369837 -0.847107 -0.381615 0.369837 -0.847107 
-0.0337998 0.0240575 -0.999139 -0.0337998 0.0240575 -0.999139 -0.0337998 0.0240575 -0.999139 
-0.338503 0.330091 0.881167 -0.338503 0.330091 0.881167 -0.338503 0.330091 0.881167 
0.269195 0.0755404 0.960119 0.269195 0.0755404 0.960119 0.269195 0.0755404 0.960119 
-0.757865 0.554421 0.343887 -0.757865 0.554421 0.343887 -0.757865 0.554421 0.343887 
-0.160582 0.0237588 -0.986737 -0.160582 0.0237588 -0.986737 -0.160582 0.0237588 -0.986737 
-0.537789 0.507183 0.67346 -0.537789 0.507183 0.67346 -0.537789 0.507183 0.67346 
0.0666064 -0.0326425 -0.997245 0.0666064 -0.0326425 -0.997245 0.0666064 -0.0326425 -0.997245 
0.359304 -0.263873 -0.895138 0.359304 -0.263873 -0.895138 0.359304 -0.263873 -0.895138 
0.627564 -0.343429 -0.698727 0.627564 -0.343429 -0.698727 0.627564 -0.343429 -0.698727 
0.542197 -0.351696 -0.763107 0.542197 -0.351696 -0.763107 0.542197 -0.351696 -0.763107 
0.916017 -0.400847 -0.0153397 0.916017 -0.400847 -0.0153397 0.916017 -0.400847 -0.0153397 
0.911088 -0.39869 -0.10471 0.911088 -0.39869 -0.10471 0.911088 -0.39869 -0.10471 
0.837515 -0.213639 0.502919 0.837515 -0.213639 0.502919 0.837515 -0.213639 0.502919 
-0.403055 0.192511 -0.894699 -0.403055 0.192511 -0.894699 -0.403055 0.192511 -0.894699 
-0.885045 0.422723 -0.194936 -0.885045 0.422723 -0.194936 -0.885045 0.422723 -0.194936 
-0.698328 0.510866 -0.501353 -0.698328 0.510866 -0.501353 -0.698328 0.510866 -0.501353 
-0.869943 0.442477 0.217746 -0.869943 0.442477 0.217746 -0.869943 0.442477 0.217746 