# vtk DataFile Version 4.2
3D Slicer output. SPACE=LPS
ASCII
DATASET POLYDATA
POINTS 2076 double
6.8280563354 -6.020304203 0.46627998352 8.7626619339 -6.0295100212 1.4632034302 6.8280563354 -5.4404420853 2.4601268768 
3.9261474609 -5.0300269127 -0.53064250946 5.8607530594 -4.140267849 -1.5792884827 6.8280563354 -6.020304203 0.46627998352 
3.9261474609 -5.0300269127 -0.53064250946 6.8280563354 -6.020304203 0.46627998352 3.9261474609 -5.1871919632 0.46627998352 
6.8280563354 -6.020304203 0.46627998352 6.8280563354 -5.4404420853 2.4601268768 3.9261474609 -5.1871919632 0.46627998352 
5.8607530594 -4.140267849 -1.5792884827 8.7626619339 -4.140267849 -1.1505689621 6.8280563354 -6.020304203 0.46627998352 
6.8280563354 -6.020304203 0.46627998352 8.7626619339 -5.660697937 0.46627998352 8.7626619339 -6.0295100212 1.4632034302 
8.7626619339 -6.0295100212 1.4632034302 8.7626619339 -5.8685545921 2.4601268768 6.8280563354 -5.4404420853 2.4601268768 
8.7626619339 -5.660697937 0.46627998352 8.7626619339 -4.140267849 -1.1505689621 11.664570808 -4.9186487198 1.4632034302 
11.664570808 -4.9186487198 1.4632034302 8.7626619339 -6.0295100212 1.4632034302 8.7626619339 -5.660697937 0.46627998352 
8.7626619339 -5.8685545921 2.4601268768 8.7626619339 -6.0295100212 1.4632034302 12.631875038 -4.1305298805 3.4570503235 
8.7626619339 -6.0295100212 1.4632034302 11.664570808 -4.9186487198 1.4632034302 12.631875038 -4.5031237602 2.4601268768 
8.7626619339 -6.0295100212 1.4632034302 12.631875038 -4.5031237602 2.4601268768 12.631875038 -4.1305298805 3.4570503235 
3.9261474609 -4.140267849 -1.404086113 3.9261474609 -5.0300269127 -0.53064250946 2.5378975868 -4.140267849 0.46627998352 
3.9261474609 -5.1871919632 0.46627998352 2.5378975868 -4.140267849 0.46627998352 3.9261474609 -5.0300269127 -0.53064250946 
3.9261474609 -5.1871919632 0.46627998352 6.8280563354 -4.140267849 3.2421970367 2.5378975868 -4.140267849 0.46627998352 
3.9261474609 -5.1871919632 0.46627998352 6.8280563354 -5.4404420853 2.4601268768 6.8280563354 -4.140267849 3.2421970367 
3.9261474609 -5.0300269127 -0.53064250946 3.9261474609 -4.140267849 -1.404086113 5.8607530594 -4.140267849 -1.5792884827 
8.7626619339 -5.660697937 0.46627998352 6.8280563354 -6.020304203 0.46627998352 8.7626619339 -4.140267849 -1.1505689621 
8.7626619339 -5.8685545921 2.4601268768 6.8280563354 -4.140267849 3.2421970367 6.8280563354 -5.4404420853 2.4601268768 
6.8280563354 -4.140267849 3.2421970367 8.7626619339 -5.8685545921 2.4601268768 10.697268486 -3.1701717377 4.3823070526 
8.7626619339 -4.140267849 -1.1505689621 11.664570808 -3.3545284271 -0.53064250946 11.664570808 -4.9186487198 1.4632034302 
10.697268486 -3.1701717377 4.3823070526 8.7626619339 -5.8685545921 2.4601268768 12.631875038 -4.1305298805 3.4570503235 
1.9915409088 -2.6709041595 -1.5275659561 2.5378975868 -4.140267849 0.46627998352 0.44680261612 -0.25988388062 -0.53064250946 
0.44680261612 -0.25988388062 -0.53064250946 2.5378975868 -4.140267849 0.46627998352 0.46019506454 -0.25988388062 0.46627998352 
2.5378975868 -4.140267849 0.46627998352 1.9915409088 -2.0164737701 1.4632034302 0.46019506454 -0.25988388062 0.46627998352 
3.9261474609 -4.140267849 -1.404086113 2.5378975868 -4.140267849 0.46627998352 1.9915409088 -2.6709041595 -1.5275659561 
6.8280563354 -4.140267849 3.2421970367 1.9915409088 -2.0164737701 1.4632034302 2.5378975868 -4.140267849 0.46627998352 
7.7953596115 -2.2000761032 3.9699611664 1.9915409088 -2.0164737701 1.4632034302 6.8280563354 -4.140267849 3.2421970367 
10.697268486 -3.1701717377 4.3823070526 7.7953596115 -2.2000761032 3.9699611664 6.8280563354 -4.140267849 3.2421970367 
11.664570808 -3.3545284271 -0.53064250946 14.56648159 -2.4623355865 0.46627998352 11.664570808 -4.9186487198 1.4632034302 
12.631875038 -4.1305298805 3.4570503235 12.631875038 -3.1701717377 4.1532125473 10.697268486 -3.1701717377 4.3823070526 
12.631875038 -4.5031237602 2.4601268768 11.664570808 -4.9186487198 1.4632034302 15.533783913 -2.5057706833 2.4601268768 
1.9915409088 -2.6709041595 -1.5275659561 3.9261474609 -2.2000761032 -2.2902011871 3.9261474609 -4.140267849 -1.404086113 
5.8607530594 -4.140267849 -1.5792884827 3.9261474609 -2.2000761032 -2.2902011871 5.8607530594 0.71021175385 -3.3898983002 
5.8607530594 -4.140267849 -1.5792884827 3.9261474609 -4.140267849 -1.404086113 3.9261474609 -2.2000761032 -2.2902011871 
10.697268486 -3.1701717377 4.3823070526 12.631875038 -3.1701717377 4.1532125473 12.631875038 -1.2299795151 4.6090621948 
14.56648159 -2.4623355865 0.46627998352 15.533783913 -2.5057706833 2.4601268768 11.664570808 -4.9186487198 1.4632034302 
15.533783913 -2.5057706833 2.4601268768 15.533783913 -2.1023216248 3.4570503235 12.631875038 -4.1305298805 3.4570503235 
15.533783913 -2.5057706833 2.4601268768 12.631875038 -4.1305298805 3.4570503235 12.631875038 -4.5031237602 2.4601268768 
12.631875038 -4.1305298805 3.4570503235 15.533783913 -2.1023216248 3.4570503235 12.631875038 -3.1701717377 4.1532125473 
1.9915409088 -0.25988388062 -2.0545310974 3.9261474609 -2.2000761032 -2.2902011871 1.9915409088 -2.6709041595 -1.5275659561 
0.44680261612 -0.25988388062 -0.53064250946 1.9915409088 -0.25988388062 -2.0545310974 1.9915409088 -2.6709041595 -1.5275659561 
7.7953596115 -0.25988388062 -3.2735290527 5.8607530594 -4.140267849 -1.5792884827 5.8607530594 0.71021175385 -3.3898983002 
8.7626619339 -4.140267849 -1.1505689621 5.8607530594 -4.140267849 -1.5792884827 7.7953596115 -0.25988388062 -3.2735290527 
11.664570808 -0.25988388062 -2.5857572556 8.7626619339 -4.140267849 -1.1505689621 7.7953596115 -0.25988388062 -3.2735290527 
10.697268486 -3.1701717377 4.3823070526 11.664570808 -0.25988388062 4.5998897552 7.7953596115 -2.2000761032 3.9699611664 
10.697268486 -3.1701717377 4.3823070526 12.631875038 -1.2299795151 4.6090621948 11.664570808 -0.25988388062 4.5998897552 
11.664570808 -3.3545284271 -0.53064250946 8.7626619339 -4.140267849 -1.1505689621 11.664570808 -0.25988388062 -2.5857572556 
11.664570808 -3.3545284271 -0.53064250946 14.56648159 -0.25988388062 -1.4527997971 14.56648159 -2.4623355865 0.46627998352 
15.533783913 -2.1023216248 3.4570503235 17.854579926 0.71021175385 3.4570503235 12.631875038 -3.1701717377 4.1532125473 
12.631875038 -3.1701717377 4.1532125473 17.854579926 0.71021175385 3.4570503235 12.631875038 -1.2299795151 4.6090621948 
14.56648159 -2.4623355865 0.46627998352 18.435691833 1.1493387222 0.46627998352 15.533783913 -2.5057706833 2.4601268768 
1.9915409088 -2.0164737701 1.4632034302 1.9915409088 1.680308342 1.6941137314 0.46019506454 -0.25988388062 0.46627998352 
1.9915409088 1.680308342 1.6941137314 1.9915409088 -2.0164737701 1.4632034302 7.7953596115 -2.2000761032 3.9699611664 
11.664570808 -0.25988388062 4.5998897552 7.7953596115 -0.25988388062 3.9060850143 7.7953596115 -2.2000761032 3.9699611664 
13.599177361 0.71021175385 -2.4656467438 11.664570808 -3.3545284271 -0.53064250946 11.664570808 -0.25988388062 -2.5857572556 
11.664570808 -3.3545284271 -0.53064250946 13.599177361 0.71021175385 -2.4656467438 14.56648159 -0.25988388062 -1.4527997971 
18.435691833 1.1493387222 0.46627998352 14.56648159 -2.4623355865 0.46627998352 14.56648159 -0.25988388062 -1.4527997971 
12.631875038 -1.2299795151 4.6090621948 17.854579926 0.71021175385 3.4570503235 17.468391418 1.680308342 3.8957281113 
18.435691833 1.1493387222 0.46627998352 18.579391479 0.71021175385 2.4601268768 15.533783913 -2.5057706833 2.4601268768 
18.579391479 0.71021175385 2.4601268768 17.854579926 0.71021175385 3.4570503235 15.533783913 -2.1023216248 3.4570503235 
18.579391479 0.71021175385 2.4601268768 15.533783913 -2.1023216248 3.4570503235 15.533783913 -2.5057706833 2.4601268768 
7.7953596115 -2.2000761032 3.9699611664 4.893450737 1.680308342 2.6631002426 1.9915409088 1.680308342 1.6941137314 
5.8607530594 0.71021175385 -3.3898983002 3.9261474609 -2.2000761032 -2.2902011871 1.9915409088 -0.25988388062 -2.0545310974 
4.893450737 1.680308342 2.6631002426 7.7953596115 -2.2000761032 3.9699611664 7.7953596115 -0.25988388062 3.9060850143 
11.664570808 -0.25988388062 4.5998897552 10.697268486 1.680308342 4.1265201569 7.7953596115 -0.25988388062 3.9060850143 
12.631875038 -1.2299795151 4.6090621948 13.599177361 2.6504039764 4.1643638611 11.664570808 -0.25988388062 4.5998897552 
18.435691833 1.1493387222 0.46627998352 14.56648159 -0.25988388062 -1.4527997971 19.402996063 3.206946373 -0.53064250946 
1.796485424 2.6504039764 -1.5275659561 1.9915409088 -0.25988388062 -2.0545310974 0.44680261612 -0.25988388062 -0.53064250946 
7.7953596115 -0.25988388062 -3.2735290527 5.8607530594 0.71021175385 -3.3898983002 7.7953596115 2.6504039764 -4.0203003883 
13.599177361 2.6504039764 4.1643638611 10.697268486 1.680308342 4.1265201569 11.664570808 -0.25988388062 4.5998897552 
17.468391418 1.680308342 3.8957281113 13.599177361 2.6504039764 4.1643638611 12.631875038 -1.2299795151 4.6090621948 
17.468391418 1.680308342 3.8957281113 17.854579926 0.71021175385 3.4570503235 19.402996063 2.1870079041 2.4601268768 
18.435691833 1.1493387222 0.46627998352 19.91500473 2.6504039764 1.4632034302 18.579391479 0.71021175385 2.4601268768 
17.854579926 0.71021175385 3.4570503235 18.579391479 0.71021175385 2.4601268768 19.402996063 2.1870079041 2.4601268768 
1.6097764969 3.6205005646 -0.53064250946 0.44680261612 -0.25988388062 -0.53064250946 0.46019506454 -0.25988388062 0.46627998352 
1.6097764969 3.6205005646 -0.53064250946 1.796485424 2.6504039764 -1.5275659561 0.44680261612 -0.25988388062 -0.53064250946 
1.796485424 2.6504039764 -1.5275659561 4.893450737 3.6205005646 -3.4476861954 1.9915409088 -0.25988388062 -2.0545310974 
4.893450737 3.6205005646 -3.4476861954 5.8607530594 0.71021175385 -3.3898983002 1.9915409088 -0.25988388062 -2.0545310974 
10.697268486 1.680308342 4.1265201569 4.893450737 1.680308342 2.6631002426 7.7953596115 -0.25988388062 3.9060850143 
11.664570808 -0.25988388062 -2.5857572556 7.7953596115 -0.25988388062 -3.2735290527 10.697268486 2.6504039764 -3.8905978203 
[...]
CELL_DATA 692
FIELD FieldData 1
GroupIds 1 692 float
0 0 0 0 0 0 0 0 0 
0 0 0 0 0 0 0 0 0 
0 0 0 0 0 0 0 0 0 
0 0 0 0 0 0 0 0 0 
0 0 0 0 0 0 0 0 0 
0 0 0 0 0 0 0 0 0 
0 0 0 0 0 0 0 0 0 
0 0 0 0 0 0 0 0 0 
0 0 0 0 0 0 0 0 0 
0 0 0 0 0 0 0 0 0 
0 0 0 0 0 0 0 0 0 
0 0 0 0 0 0 0 0 0 
0 0 0 0 0 0 0 0 0 
0 0 0 0 0 0 0 0 0 
0 0 0 0 0 0 0 0 0 
0 0 0 0 0 0 0 0 0 
0 0 0 0 0 0 0 0 0 
0 0 0 0 0 0 0 0 0 
0 0 0 0 0 0 0 0 0 
0 0 0 0 0 0 0 0 0 
0 0 0 0 0 0 0 0 0 
0 0 0 0 0 0 0 0 0 
0 0 0 0 0 0 0 0 0 
0 0 0 0 0 0 0 0 0 
0 0 0 0 0 0 0 0 0 
0 0 0 0 0 0 0 0 0 
0 0 0 0 0 0 0 0 0 
0 0 0 0 0 0 0 0 0 
0 0 0 0 0 0 0 0 0 
0 0 0 0 0 0 0 0 0 
0 0 0 0 0 0 0 0 0 
0 0 0 0 0 0 0 0 0 
0 0 0 0 0 0 0 0 0 
0 0 0 0 0 0 0 0 0 
0 0 0 0 0 0 0 0 0 
0 0 0 0 0 0 0 0 0 
0 0 0 0 0 0 0 0 0 
0 0 0 0 0 0 0 0 0 
0 0 0 0 0 0 0 0 0 
0 0 0 0 0 0 0 0 0 
0 0 0 0 0 0 0 0 0 
0 0 0 0 0 0 0 0 0 
0 0 0 0 0 0 0 0 0 
0 0 0 0 0 0 0 0 0 
0 0 0 0 0 0 0 0 0 
0 0 0 0 0 0 0 0 0 
0 0 0 0 0 0 0 0 0 
0 0 0 0 0 0 0 0 0 
0 0 0 0 0 0 0 0 0 
0 0 0 0 0 0 0 0 0 
0 0 0 0 0 0 0 0 0 
0 0 0 0 0 0 0 0 0 
0 0 0 0 0 0 0 0 0 
0 0 0 0 0 0 0 0 0 
0 0 0 0 0 0 0 0 0 
0 0 0 0 0 0 0 0 0 
0 0 0 0 0 0 0 0 0 
0 0 0 0 0 0 0 0 0 
0 0 0 0 0 0 0 0 0 
0 0 0 0 0 0 0 0 0 
0 0 0 0 0 0 0 0 0 
0 0 0 0 0 0 0 0 0 
0 0 0 0 0 0 0 0 0 
0 0 0 0 0 0 0 0 0 
0 0 0 0 0 0 0 0 0 
0 0 0 0 0 0 0 0 0 
0 0 0 0 0 0 0 0 0 
0 0 0 0 0 0 0 0 0 
0 0 0 0 0 0 0 0 0 
0 0 0 0 0 0 0 0 0 
0 0 0 0 0 0 0 0 0 
0 0 0 0 0 0 0 0 0 
0 0 0 0 0 0 0 0 0 
0 0 0 0 0 0 0 0 0 
0 0 0 0 0 0 0 0 0 
0 0 0 0 0 0 0 0 0 
0 0 0 0 0 0 0 0 
POINT_DATA 2076
NORMALS Normals float
-0.146863 -0.949805 0.276228 -0.146863 -0.949805 0.276228 -0.146863 -0.949805 0.276228 
-0.022581 -0.741379 -0.670707 -0.022581 -0.741379 -0.670707 -0.022581 -0.741379 -0.670707 
-0.27283 -0.950325 -0.149819 -0.27283 -0.950325 -0.149819 -0.27283 -0.950325 -0.149819 
-0.265757 -0.925687 0.269214 -0.265757 -0.925687 0.269214 -0.265757 -0.925687 0.269214 
0.103284 -0.707519 -0.699106 0.103284 -0.707519 -0.699106 0.103284 -0.707519 -0.699106 
0.171743 -0.923942 -0.341813 0.171743 -0.923942 -0.341813 0.171743 -0.923942 -0.341813 
-0.213429 -0.964469 0.155716 -0.213429 -0.964469 0.155716 -0.213429 -0.964469 0.155716 
0.388506 -0.671268 -0.631238 0.388506 -0.671268 -0.631238 0.388506 -0.671268 -0.631238 
0.337905 -0.882711 -0.326559 0.337905 -0.882711 -0.326559 0.337905 -0.882711 -0.326559 
0.373296 -0.915852 0.147866 0.373296 -0.915852 0.147866 0.373296 -0.915852 0.147866 
0.357184 -0.933074 0.0423401 0.357184 -0.933074 0.0423401 0.357184 -0.933074 0.0423401 
0.269029 -0.902181 0.337184 0.269029 -0.902181 0.337184 0.269029 -0.902181 0.337184 
-0.693075 -0.504991 -0.514424 -0.693075 -0.504991 -0.514424 -0.693075 -0.504991 -0.514424 
-0.597396 -0.792163 -0.124885 -0.597396 -0.792163 -0.124885 -0.597396 -0.792163 -0.124885 
-0.440786 -0.584494 0.681231 -0.440786 -0.584494 0.681231 -0.440786 -0.584494 0.681231 
-0.535308 -0.435377 0.723804 -0.535308 -0.435377 0.723804 -0.535308 -0.435377 0.723804 
-0.0644925 -0.699075 -0.712134 -0.0644925 -0.699075 -0.712134 -0.0644925 -0.699075 -0.712134 
0.134189 -0.721906 -0.678856 0.134189 -0.721906 -0.678856 0.134189 -0.721906 -0.678856 
-0.11333 -0.512127 0.8514 -0.11333 -0.512127 0.8514 -0.11333 -0.512127 0.8514 
-0.119877 -0.517559 0.847208 -0.119877 -0.517559 0.847208 -0.119877 -0.517559 0.847208 
0.326045 -0.743797 -0.58349 0.326045 -0.743797 -0.58349 0.326045 -0.743797 -0.58349 
0.0723598 -0.612566 0.787101 0.0723598 -0.612566 0.787101 0.0723598 -0.612566 0.787101 
-0.858429 -0.49609 -0.130365 -0.858429 -0.49609 -0.130365 -0.858429 -0.49609 -0.130365 
-0.88152 -0.471999 0.0118421 -0.88152 -0.471999 0.0118421 -0.88152 -0.471999 0.0118421 
-0.78137 -0.418375 0.463059 -0.78137 -0.418375 0.463059 -0.78137 -0.418375 0.463059 
-0.538182 -0.742155 -0.399457 -0.538182 -0.742155 -0.399457 -0.538182 -0.742155 -0.399457 
-0.479227 -0.470946 0.740642 -0.479227 -0.470946 0.740642 -0.479227 -0.470946 0.740642 
-0.396256 -0.142654 0.90699 -0.396256 -0.142654 0.90699 -0.396256 -0.142654 0.90699 
-0.216589 -0.246361 0.944667 -0.216589 -0.246361 0.944667 -0.216589 -0.246361 0.944667 
0.413345 -0.716433 -0.562023 0.413345 -0.716433 -0.562023 0.413345 -0.716433 -0.562023 
0.0954404 -0.584235 0.805954 0.0954404 -0.584235 0.805954 0.0954404 -0.584235 0.805954 
0.555224 -0.806672 -0.202501 0.555224 -0.806672 -0.202501 0.555224 -0.806672 -0.202501 
-0.249341 -0.402317 -0.880892 -0.249341 -0.402317 -0.880892 -0.249341 -0.402317 -0.880892 
-0.00645567 -0.349707 -0.936837 -0.00645567 -0.349707 -0.936837 -0.00645567 -0.349707 -0.936837 
-0.0820993 -0.414036 -0.906551 -0.0820993 -0.414036 -0.906551 -0.0820993 -0.414036 -0.906551 
0.114522 -0.227218 0.967087 0.114522 -0.227218 0.967087 0.114522 -0.227218 0.967087 
0.559064 -0.777438 -0.288163 0.559064 -0.777438 -0.288163 0.559064 -0.777438 -0.288163 
0.543736 -0.777964 0.314837 0.543736 -0.777964 0.314837 0.543736 -0.777964 0.314837 
0.541872 -0.787273 0.294238 0.541872 -0.787273 0.294238 0.541872 -0.787273 0.294238 
0.379517 -0.543004 0.749075 0.379517 -0.543004 0.749075 0.379517 -0.543004 0.749075 
-0.316071 -0.202578 -0.926856 -0.316071 -0.202578 -0.926856 -0.316071 -0.202578 -0.926856 
-0.693936 -0.153745 -0.703431 -0.693936 -0.153745 -0.703431 -0.693936 -0.153745 -0.703431 
-0.118175 -0.347264 -0.930292 -0.118175 -0.347264 -0.930292 -0.118175 -0.347264 -0.930292 
0.13047 -0.450634 -0.883123 0.13047 -0.450634 -0.883123 0.13047 -0.450634 -0.883123 
0.156846 -0.443647 -0.88237 0.156846 -0.443647 -0.88237 0.156846 -0.443647 -0.88237 
-0.148662 -0.0244984 0.988585 -0.148662 -0.0244984 0.988585 -0.148662 -0.0244984 0.988585 
-0.0631288 -0.0535244 0.996569 -0.0631288 -0.0535244 0.996569 -0.0631288 -0.0535244 0.996569 
0.31145 -0.525697 -0.791607 0.31145 -0.525697 -0.791607 0.31145 -0.525697 -0.791607 
0.418644 -0.5966 -0.684694 0.418644 -0.5966 -0.684694 0.418644 -0.5966 -0.684694 
0.314555 -0.259559 0.913063 0.314555 -0.259559 0.913063 0.314555 -0.259559 0.913063 
0.287083 -0.219095 0.932513 0.287083 -0.219095 0.932513 0.287083 -0.219095 0.932513 
0.644658 -0.690627 -0.327797 0.644658 -0.690627 -0.327797 0.644658 -0.690627 -0.327797 
-0.584975 -0.0505618 0.809474 -0.584975 -0.0505618 0.809474 -0.584975 -0.0505618 0.809474 
-0.397386 -0.0572073 0.915866 -0.397386 -0.0572073 0.915866 -0.397386 -0.0572073 0.915866 
-0.176407 0.0323887 0.983784 -0.176407 0.0323887 0.983784 -0.176407 0.0323887 0.983784 
0.312627 -0.525483 -0.791285 0.312627 -0.525483 -0.791285 0.312627 -0.525483 -0.791285 
0.306409 -0.524111 -0.79462 0.306409 -0.524111 -0.79462 0.306409 -0.524111 -0.79462 
0.522754 -0.56003 -0.642724 0.522754 -0.56003 -0.642724 0.522754 -0.56003 -0.642724 
0.307053 -0.287948 0.907085 0.307053 -0.287948 0.907085 0.307053 -0.287948 0.907085 
0.711458 -0.673766 -0.199667 0.711458 -0.673766 -0.199667 0.711458 -0.673766 -0.199667 
0.67275 -0.555128 0.489122 0.67275 -0.555128 0.489122 0.67275 -0.555128 0.489122 
0.6995 -0.662442 0.268086 0.6995 -0.662442 0.268086 0.6995 -0.662442 0.268086 
-0.315648 0.0823096 0.9453 -0.315648 0.0823096 0.9453 -0.315648 0.0823096 0.9453 
-0.283658 -0.168168 -0.944064 -0.283658 -0.168168 -0.944064 -0.283658 -0.168168 -0.944064 
-0.376259 0.0304867 0.926013 -0.376259 0.0304867 0.926013 -0.376259 0.0304867 0.926013 
-0.174491 0.150424 0.973101 -0.174491 0.150424 0.973101 -0.174491 0.150424 0.973101 
0.0836983 0.0928385 0.992157 0.0836983 0.0928385 0.992157 0.0836983 0.0928385 0.992157 
0.52285 -0.558013 -0.644399 0.52285 -0.558013 -0.644399 0.52285 -0.558013 -0.644399 
-0.699946 0.0815608 -0.709523 -0.699946 0.0815608 -0.709523 -0.699946 0.0815608 -0.709523 
-0.0662218 -0.248 -0.966494 -0.0662218 -0.248 -0.966494 -0.0662218 -0.248 -0.966494 
-0.0792089 0.198836 0.976826 -0.0792089 0.198836 0.976826 -0.0792089 0.198836 0.976826 
0.091616 0.0908062 0.991646 0.091616 0.0908062 0.991646 0.091616 0.0908062 0.991646 
0.610846 -0.111301 0.783887 0.610846 -0.111301 0.783887 0.610846 -0.111301 0.783887 
0.759686 -0.621418 -0.191614 0.759686 -0.621418 -0.191614 0.759686 -0.621418 -0.191614 
0.737285 -0.411181 0.536042 0.737285 -0.411181 0.536042 0.737285 -0.411181 0.536042 
-0.957825 0.287066 0.0128672 -0.957825 0.287066 0.0128672 -0.957825 0.287066 0.0128672 
-0.870654 0.26094 -0.416979 -0.870654 0.26094 -0.416979 -0.870654 0.26094 -0.416979 
-0.54892 0.113168 -0.828179 -0.54892 0.113168 -0.828179 -0.54892 0.113168 -0.828179 
-0.297482 -0.117688 -0.947446 -0.297482 -0.117688 -0.947446 -0.297482 -0.117688 -0.947446 
-0.236884 0.247566 0.939466 -0.236884 0.247566 0.939466 -0.236884 0.247566 0.939466 
0.16342 -0.357881 -0.919356 0.16342 -0.357881 -0.919356 0.16342 -0.357881 -0.919356 
0.0432526 -0.248313 -0.967714 0.0432526 -0.248313 -0.967714 0.0432526 -0.248313 -0.967714 
0.224976 -0.335389 -0.914823 0.224976 -0.335389 -0.914823 0.224976 -0.335389 -0.914823 
0.259716 -0.288414 -0.92161 0.259716 -0.288414 -0.92161 0.259716 -0.288414 -0.92161 
0.408041 -0.432554 -0.80399 0.408041 -0.432554 -0.80399 0.408041 -0.432554 -0.80399 
0.49939 -0.510492 -0.700005 0.49939 -0.510492 -0.700005 0.49939 -0.510492 -0.700005 
0.433376 -0.445288 -0.78352 0.433376 -0.445288 -0.78352 0.433376 -0.445288 -0.78352 
0.611268 -0.115611 0.782934 0.611268 -0.115611 0.782934 0.611268 -0.115611 0.782934 
0.772899 -0.531374 -0.346799 0.772899 -0.531374 -0.346799 0.772899 -0.531374 -0.346799 
0.852579 -0.47548 0.216859 0.852579 -0.47548 0.216859 0.852579 -0.47548 0.216859 
-0.927895 0.322819 0.186545 -0.927895 0.322819 0.186545 -0.927895 0.322819 0.186545 
-0.788732 0.274403 0.550095 -0.788732 0.274403 0.550095 -0.788732 0.274403 0.550095 
-0.573463 0.365685 0.733086 -0.573463 0.365685 0.733086 -0.573463 0.365685 0.733086 
-0.54549 0.092729 -0.832972 -0.54549 0.092729 -0.832972 -0.54549 0.092729 -0.832972 
-0.297884 0.339737 0.892101 -0.297884 0.339737 0.892101 -0.297884 0.339737 0.892101 
-0.275629 0.309002 0.910245 -0.275629 0.309002 0.910245 -0.275629 0.309002 0.910245 
-0.222669 -0.0932784 -0.970421 -0.222669 -0.0932784 -0.970421 -0.222669 -0.0932784 -0.970421 
0.0439935 -0.170986 -0.984291 0.0439935 -0.170986 -0.984291 0.0439935 -0.170986 -0.984291 
-0.132454 0.360195 0.923426 -0.132454 0.360195 0.923426 -0.132454 0.360195 0.923426 
0.26091 -0.292266 -0.920058 0.26091 -0.292266 -0.920058 0.26091 -0.292266 -0.920058 
0.113007 0.180145 0.977127 0.113007 0.180145 0.977127 0.113007 0.180145 0.977127 
-0.646174 0.269529 -0.714012 -0.646174 0.269529 -0.714012 -0.646174 0.269529 -0.714012 
-0.178265 0.0468952 -0.982864 -0.178265 0.0468952 -0.982864 -0.178265 0.0468952 -0.982864 
-0.347394 0.103749 -0.931962 -0.347394 0.103749 -0.931962 -0.347394 0.103749 -0.931962 
-0.231275 0.324376 0.91722 -0.231275 0.324376 0.91722 -0.231275 0.324376 0.91722 
-0.195506 0.375215 0.906086 -0.195506 0.375215 0.906086 -0.195506 0.375215 0.906086 
0.128697 -0.0873 -0.987834 0.128697 -0.0873 -0.987834 0.128697 -0.0873 -0.987834 
-0.101475 0.387311 0.916348 -0.101475 0.387311 0.916348 -0.101475 0.387311 0.916348 
-0.0154752 0.338671 0.940778 -0.0154752 0.338671 0.940778 -0.0154752 0.338671 0.940778 
0.112155 0.180162 0.977222 0.112155 0.180162 0.977222 0.112155 0.180162 0.977222 
0.891376 -0.339982 0.299768 0.891376 -0.339982 0.299768 0.891376 -0.339982 0.299768 
0.556159 -0.172991 0.812872 0.556159 -0.172991 0.812872 0.556159 -0.172991 0.812872 
-0.753938 0.588694 0.291576 -0.753938 0.588694 0.291576 -0.753938 0.588694 0.291576 
-0.200266 0.897626 -0.392633 -0.200266 0.897626 -0.392633 -0.200266 0.897626 -0.392633 
-0.767225 0.411413 -0.492041 -0.767225 0.411413 -0.492041 -0.767225 0.411413 -0.492041 
-0.74736 0.400761 -0.529946 -0.74736 0.400761 -0.529946 -0.74736 0.400761 -0.529946 
-0.235769 0.581528 0.778613 -0.235769 0.581528 0.778613 -0.235769 0.581528 0.778613 
-0.276901 -0.00531713 -0.960884 -0.276901 -0.00531713 -0.960884 -0.276901 -0.00531713 -0.960884 
-0.0770058 0.596621 0.79882 -0.0770058 0.596621 0.79882 -0.0770058 0.596621 0.79882 
-0.280855 -0.00531078 -0.959735 -0.280855 -0.00531078 -0.959735 -0.280855 -0.00531078 -0.959735 
-0.172899 0.572716 0.801313 -0.172899 0.572716 0.801313 -0.172899 0.572716 0.801313 
0.131622 -0.0996398 -0.98628 0.131622 -0.0996398 -0.98628 0.131622 -0.0996398 -0.98628 
0.756505 -0.498676 -0.423111 0.756505 -0.498676 -0.423111 0.756505 -0.498676 -0.423111 
0.77122 -0.53367 -0.347009 0.77122 -0.53367 -0.347009 0.77122 -0.53367 -0.347009 
0.831824 -0.374112 0.410011 0.831824 -0.374112 0.410011 0.831824 -0.374112 0.410011 
-0.788005 0.615294 0.0215039 -0.788005 0.615294 0.0215039 -0.788005 0.615294 0.0215039 
-0.314636 0.668653 0.673726 -0.314636 0.668653 0.673726 -0.314636 0.668653 0.673726 
-0.54544 0.344993 -0.763856 -0.54544 0.344993 -0.763856 -0.54544 0.344993 -0.763856 
-0.0207743 0.128807 -0.991452 -0.0207743 0.128807 -0.991452 -0.0207743 0.128807 -0.991452 
-0.214085 0.665373 0.715155 -0.214085 0.665373 0.715155 -0.214085 0.665373 0.715155 
0.131255 -0.124317 -0.983523 0.131255 -0.124317 -0.983523 0.131255 -0.124317 -0.983523 
-0.146337 0.568269 0.809726 -0.146337 0.568269 0.809726 -0.146337 0.568269 0.809726 
0.260081 -0.293718 -0.91983 0.260081 -0.293718 -0.91983 0.260081 -0.293718 -0.91983 
0.145579 0.195877 0.969762 0.145579 0.195877 0.969762 0.145579 0.195877 0.969762 
0.291324 0.0350075 0.955984 0.291324 0.0350075 0.955984 0.291324 0.0350075 0.955984 
0.461137 0.0962271 0.882096 0.461137 0.0962271 0.882096 0.461137 0.0962271 0.882096 
0.754253 -0.507445 -0.416655 0.754253 -0.507445 -0.416655 0.754253 -0.507445 -0.416655 
0.824133 -0.300365 0.480194 0.824133 -0.300365 0.480194 0.824133 -0.300365 0.480194 
0.676417 -0.0862672 0.73145 0.676417 -0.0862672 0.73145 0.676417 -0.0862672 0.73145 
-0.535131 0.751598 -0.385664 -0.535131 0.751598 -0.385664 -0.535131 0.751598 -0.385664 
-0.579765 0.814287 0.0284586 -0.579765 0.814287 0.0284586 -0.579765 0.814287 0.0284586 
-0.464 0.774299 -0.430307 -0.464 0.774299 -0.430307 -0.464 0.774299 -0.430307 
-0.463084 0.60413 -0.648521 -0.463084 0.60413 -0.648521 -0.463084 0.60413 -0.648521 
-0.195212 0.874024 0.444943 -0.195212 0.874024 0.444943 -0.195212 0.874024 0.444943 
-0.248946 0.437888 -0.863875 -0.248946 0.437888 -0.863875 -0.248946 0.437888 -0.863875 
-0.0810627 0.569075 -0.81828 -0.0810627 0.569075 -0.81828 -0.0810627 0.569075 -0.81828 
-0.0190119 0.41997 -0.907339 -0.0190119 0.41997 -0.907339 -0.0190119 0.41997 -0.907339 
-0.261537 0.424399 0.866881 -0.261537 0.424399 0.866881 -0.261537 0.424399 0.866881 
0.938605 -0.342086 0.0447076 0.938605 -0.342086 0.0447076 0.938605 -0.342086 0.0447076 
-0.152212 0.889901 0.43001 -0.152212 0.889901 0.43001 -0.152212 0.889901 0.43001 
-0.168066 0.982585 -0.0792511 -0.168066 0.982585 -0.0792511 -0.168066 0.982585 -0.0792511 
-0.0994153 0.875521 0.472842 -0.0994153 0.875521 0.472842 -0.0994153 0.875521 0.472842 
-0.209927 0.976174 -0.054904 -0.209927 0.976174 -0.054904 -0.209927 0.976174 -0.054904 
-0.00896788 0.879845 0.475177 -0.00896788 0.879845 0.475177 -0.00896788 0.879845 0.475177 
-0.0849381 0.837364 -0.540007 -0.0849381 0.837364 -0.540007 -0.0849381 0.837364 -0.540007 
-0.474713 0.879833 0.0232639 -0.474713 0.879833 0.0232639 -0.474713 0.879833 0.0232639 
-0.198316 0.792357 0.576924 -0.198316 0.792357 0.576924 -0.198316 0.792357 0.576924 
-0.139013 0.415967 -0.898692 -0.139013 0.415967 -0.898692 -0.139013 0.415967 -0.898692 
0.0311413 0.266759 -0.96326 0.0311413 0.266759 -0.96326 0.0311413 0.266759 -0.96326 
0.0863535 -0.168664 -0.981884 0.0863535 -0.168664 -0.981884 0.0863535 -0.168664 -0.981884 
-0.0150951 0.397061 0.917668 -0.0150951 0.397061 0.917668 -0.0150951 0.397061 0.917668 
-0.0647708 0.387916 0.919416 -0.0647708 0.387916 0.919416 -0.0647708 0.387916 0.919416 
0.451169 -0.369794 -0.812218 0.451169 -0.369794 -0.812218 0.451169 -0.369794 -0.812218 
-0.394728 0.905148 -0.157789 -0.394728 0.905148 -0.157789 -0.394728 0.905148 -0.157789 
-0.298784 0.68514 -0.664313 -0.298784 0.68514 -0.664313 -0.298784 0.68514 -0.664313 
-0.505246 0.381434 -0.774102 -0.505246 0.381434 -0.774102 -0.505246 0.381434 -0.774102 
-0.22263 0.666175 -0.711791 -0.22263 0.666175 -0.711791 -0.22263 0.666175 -0.711791 
-0.203336 0.261609 0.943512 -0.203336 0.261609 0.943512 -0.203336 0.261609 0.943512 
0.226419 -0.247709 -0.942006 0.226419 -0.247709 -0.942006 0.226419 -0.247709 -0.942006 
0.521395 -0.353583 -0.776612 0.521395 -0.353583 -0.776612 0.521395 -0.353583 -0.776612 
0.718634 -0.434049 -0.543292 0.718634 -0.434049 -0.543292 0.718634 -0.434049 -0.543292 
-0.505519 0.40968 -0.75935 -0.505519 0.40968 -0.75935 -0.505519 0.40968 -0.75935 
-0.776904 0.629615 0.00237421 -0.776904 0.629615 0.00237421 -0.776904 0.629615 0.00237421 
-0.744746 0.657433 -0.114607 -0.744746 0.657433 -0.114607 -0.744746 0.657433 -0.114607 
-0.67892 0.599325 0.424119 -0.67892 0.599325 0.424119 -0.67892 0.599325 0.424119 
-0.678764 0.593664 0.432253 -0.678764 0.593664 0.432253 -0.678764 0.593664 0.432253 
-0.421166 0.594958 0.684576 -0.421166 0.594958 0.684576 -0.421166 0.594958 0.684576 
-0.119972 -0.0266238 -0.99242 -0.119972 -0.0266238 -0.99242 -0.119972 -0.0266238 -0.99242 
-0.481926 0.363829 -0.797104 -0.481926 0.363829 -0.797104 -0.481926 0.363829 -0.797104 
-0.0361986 -0.0478361 -0.998199 -0.0361986 -0.0478361 -0.998199 -0.0361986 -0.0478361 -0.998199 
0.594601 -0.359134 -0.719356 0.594601 -0.359134 -0.719356 0.594601 -0.359134 -0.719356 
-0.757223 0.31013 -0.574833 -0.757223 0.31013 -0.574833 -0.757223 0.31013 -0.574833 
-0.350849 0.175181 -0.9199 -0.350849 0.175181 -0.9199 -0.350849 0.175181 -0.9199 
-0.0354096 -0.212853 -0.976443 -0.0354096 -0.212853 -0.976443 -0.0354096 -0.212853 -0.976443 
0.278494 -0.219107 -0.935111 0.278494 -0.219107 -0.935111 0.278494 -0.219107 -0.935111 
0.928803 -0.306905 -0.207687 0.928803 -0.306905 -0.207687 0.928803 -0.306905 -0.207687 
0.948537 -0.313426 0.0451807 0.948537 -0.313426 0.0451807 0.948537 -0.313426 0.0451807 
0.678291 -0.0439883 0.733476 0.678291 -0.0439883 0.733476 0.678291 -0.0439883 0.733476 
-0.881265 0.469712 -0.0523716 -0.881265 0.469712 -0.0523716 -0.881265 0.469712 -0.0523716 
-0.820595 0.437375 0.367867 -0.820595 0.437375 0.367867 -0.820595 0.437375 0.367867 
-0.059185 0.266723 0.961954 -0.059185 0.266723 0.961954 -0.059185 0.266723 0.961954 
0.337338 -0.232452 -0.912233 0.337338 -0.232452 -0.912233 0.337338 -0.232452 -0.912233 
0.223704 0.17203 0.959355 0.223704 0.17203 0.959355 0.223704 0.17203 0.959355 
0.674067 -0.0382826 0.737678 0.674067 -0.0382826 0.737678 0.674067 -0.0382826 0.737678 
-0.737814 0.205125 -0.643082 -0.737814 0.205125 -0.643082 -0.737814 0.205125 -0.643082 
-0.904905 0.25158 0.343301 -0.904905 0.25158 0.343301 -0.904905 0.25158 0.343301 
-0.529231 -0.0441062 -0.84733 -0.529231 -0.0441062 -0.84733 -0.529231 -0.0441062 -0.84733 
-0.72905 0.0245851 -0.684019 -0.72905 0.0245851 -0.684019 -0.72905 0.0245851 -0.684019 
-0.988385 0.0586748 -0.14019 -0.988385 0.0586748 -0.14019 -0.988385 0.0586748 -0.14019 
-0.755103 0.456397 0.470661 -0.755103 0.456397 0.470661 -0.755103 0.456397 0.470661 
-0.542996 0.353719 0.761603 -0.542996 0.353719 0.761603 -0.542996 0.353719 0.761603 
-0.145452 -0.104991 -0.983779 -0.145452 -0.104991 -0.983779 -0.145452 -0.104991 -0.983779 
-0.344252 -0.0488054 -0.937608 -0.344252 -0.0488054 -0.937608 -0.344252 -0.0488054 -0.937608 
-0.343455 0.395603 0.851785 -0.343455 0.395603 0.851785 -0.343455 0.395603 0.851785 
0.209914 0.172571 0.96237 0.209914 0.172571 0.96237 0.209914 0.172571 0.96237 
0.620701 -0.335441 -0.708668 0.620701 -0.335441 -0.708668 0.620701 -0.335441 -0.708668 
0.929055 -0.344633 -0.134479 0.929055 -0.344633 -0.134479 0.929055 -0.344633 -0.134479 
-0.738942 0.355487 0.572358 -0.738942 0.355487 0.572358 -0.738942 0.355487 0.572358 
0.169156 -0.155831 -0.973192 0.169156 -0.155831 -0.973192 0.169156 -0.155831 -0.973192 
0.854358 -0.316924 -0.411864 0.854358 -0.316924 -0.411864 0.854358 -0.316924 -0.411864 
-0.822882 0.137921 0.55122 -0.822882 0.137921 0.55122 -0.822882 0.137921 0.55122 
-0.864359 0.0927971 0.49424 -0.864359 0.0927971 0.49424 -0.864359 0.0927971 0.49424 