# vtk DataFile Version 4.2
3D Slicer output. SPACE=LPS
ASCII
DATASET POLYDATA
POINTS 2028 double
3.9100990295 -5.2759208679 1.3527355194 3.9100990295 -4.9968867302 -0.66310119629 5.8516807556 -6.1672272682 1.3527355194 
6.822470665 -6.1242990494 0.34481716156 5.8516807556 -6.1672272682 1.3527355194 3.9100990295 -4.9968867302 -0.66310119629 
6.822470665 -6.1242990494 0.34481716156 8.7640523911 -6.1863732338 1.3527355194 5.8516807556 -6.1672272682 1.3527355194 
8.7640523911 -6.1863732338 1.3527355194 8.7640523911 -6.2793674469 2.3606529236 5.8516807556 -6.1672272682 1.3527355194 
8.7640523911 -5.7707190514 3.3685712814 3.9100990295 -5.2759208679 1.3527355194 5.8516807556 -6.1672272682 1.3527355194 
8.7640523911 -5.7707190514 3.3685712814 5.8516807556 -6.1672272682 1.3527355194 8.7640523911 -6.2793674469 2.3606529236 
8.7640523911 -5.6199164391 0.34481716156 8.7640523911 -6.1863732338 1.3527355194 6.822470665 -6.1242990494 0.34481716156 
8.7640523911 -6.1863732338 1.3527355194 12.647213936 -4.4088172913 2.3606529236 8.7640523911 -6.2793674469 2.3606529236 
2.5177345276 -4.4498915672 0.34481716156 1.9685182571 -3.7371144295 -0.66310119629 3.9100990295 -4.9968867302 -0.66310119629 
2.5177345276 -4.4498915672 0.34481716156 3.9100990295 -4.9968867302 -0.66310119629 3.9100990295 -5.2759208679 1.3527355194 
3.9100990295 -5.2759208679 1.3527355194 3.9100990295 -3.4827241898 2.3745040894 2.5177345276 -4.4498915672 0.34481716156 
3.9100990295 -4.9968867302 -0.66310119629 6.822470665 -4.4498915672 -1.3024420738 6.822470665 -6.1242990494 0.34481716156 
3.9100990295 -3.4827241898 2.3745040894 3.9100990295 -5.2759208679 1.3527355194 7.793261528 -4.4498915672 3.9397735596 
8.7640523911 -5.7707190514 3.3685712814 7.793261528 -4.4498915672 3.9397735596 3.9100990295 -5.2759208679 1.3527355194 
6.822470665 -6.1242990494 0.34481716156 6.822470665 -4.4498915672 -1.3024420738 8.7640523911 -5.6199164391 0.34481716156 
8.7640523911 -5.6199164391 0.34481716156 12.647213936 -4.4088172913 2.3606529236 8.7640523911 -6.1863732338 1.3527355194 
8.7640523911 -5.6199164391 0.34481716156 11.676423073 -2.6371536255 -0.66310119629 12.647213936 -4.4088172913 2.3606529236 
8.7640523911 -6.2793674469 2.3606529236 7.793261528 -4.4498915672 3.9397735596 8.7640523911 -5.7707190514 3.3685712814 
10.705633163 -4.7498879433 4.3764896393 7.793261528 -4.4498915672 3.9397735596 8.7640523911 -6.2793674469 2.3606529236 
12.647213936 -4.4088172913 2.3606529236 11.676423073 -5.0939507484 3.3685712814 8.7640523911 -6.2793674469 2.3606529236 
11.676423073 -5.0939507484 3.3685712814 10.705633163 -4.7498879433 4.3764896393 8.7640523911 -6.2793674469 2.3606529236 
1.9685182571 -3.7371144295 -0.66310119629 2.5177345276 -4.4498915672 0.34481716156 1.1599636078 -2.5155563354 0.34481716156 
3.9100990295 -4.9968867302 -0.66310119629 1.9685182571 -3.7371144295 -0.66310119629 1.9685182571 -2.5155563354 -1.4725589752 
1.9685182571 -2.5155563354 -1.4725589752 5.8516807556 -2.5155563354 -2.3300843239 6.822470665 -4.4498915672 -1.3024420738 
6.822470665 -4.4498915672 -1.3024420738 3.9100990295 -4.9968867302 -0.66310119629 1.9685182571 -2.5155563354 -1.4725589752 
8.7640523911 -2.5155563354 -1.9787869453 8.7640523911 -5.6199164391 0.34481716156 6.822470665 -4.4498915672 -1.3024420738 
10.705633163 -4.7498879433 4.3764896393 12.647213936 -2.5155563354 5.3289279938 7.793261528 -4.4498915672 3.9397735596 
12.647213936 -2.5155563354 5.3289279938 9.7348423004 -2.5155563354 4.9711475372 7.793261528 -4.4498915672 3.9397735596 
11.676423073 -5.0939507484 3.3685712814 13.618004799 -2.5155563354 5.2158164978 10.705633163 -4.7498879433 4.3764896393 
10.705633163 -4.7498879433 4.3764896393 13.618004799 -2.5155563354 5.2158164978 12.647213936 -2.5155563354 5.3289279938 
12.647213936 -4.4088172913 2.3606529236 11.676423073 -2.6371536255 -0.66310119629 14.623501778 -2.5155563354 1.3527355194 
12.647213936 -4.4088172913 2.3606529236 15.559586525 -2.6786546707 3.3685712814 11.676423073 -5.0939507484 3.3685712814 
11.676423073 -5.0939507484 3.3685712814 15.559586525 -2.6786546707 3.3685712814 13.618004799 -2.5155563354 5.2158164978 
15.559586525 -2.6786546707 3.3685712814 15.559586525 -2.3889894485 4.3764896393 13.618004799 -2.5155563354 5.2158164978 
0.87459182739 -1.5483894348 -0.66310119629 1.9685182571 -2.5155563354 -1.4725589752 1.9685182571 -3.7371144295 -0.66310119629 
1.9685182571 -3.7371144295 -0.66310119629 1.1599636078 -2.5155563354 0.34481716156 0.87459182739 -1.5483894348 -0.66310119629 
2.5177345276 -4.4498915672 0.34481716156 3.9100990295 -3.4827241898 2.3745040894 1.1599636078 -2.5155563354 0.34481716156 
3.9100990295 -3.4827241898 2.3745040894 7.793261528 -4.4498915672 3.9397735596 6.822470665 -1.5483894348 3.9611711502 
8.7640523911 -2.5155563354 -1.9787869453 6.822470665 -4.4498915672 -1.3024420738 5.8516807556 -2.5155563354 -2.3300843239 
7.793261528 -4.4498915672 3.9397735596 9.7348423004 -2.5155563354 4.9711475372 6.822470665 -1.5483894348 3.9611711502 
11.676423073 -2.6371536255 -0.66310119629 8.7640523911 -5.6199164391 0.34481716156 8.7640523911 -2.5155563354 -1.9787869453 
14.623501778 -2.5155563354 1.3527355194 16.584316254 -1.5483894348 2.3606529236 12.647213936 -4.4088172913 2.3606529236 
16.584316254 -1.5483894348 2.3606529236 15.559586525 -2.6786546707 3.3685712814 12.647213936 -4.4088172913 2.3606529236 
0.87459182739 -1.5483894348 -0.66310119629 1.1599636078 -2.5155563354 0.34481716156 0.34833431244 -0.58122158051 0.34481716156 
3.9100990295 -3.4827241898 2.3745040894 1.9685182571 -0.58122158051 1.8246765137 0.34833431244 -0.58122158051 0.34481716156 
1.1599636078 -2.5155563354 0.34481716156 3.9100990295 -3.4827241898 2.3745040894 0.34833431244 -0.58122158051 0.34481716156 
5.8516807556 -2.5155563354 -2.3300843239 1.9685182571 -2.5155563354 -1.4725589752 3.9100990295 -1.5483894348 -2.3679947853 
1.9685182571 -0.58122158051 1.8246765137 3.9100990295 -3.4827241898 2.3745040894 6.822470665 -1.5483894348 3.9611711502 
8.7640523911 -2.5155563354 -1.9787869453 13.618004799 0.3859462738 -1.5315718651 11.676423073 -2.6371536255 -0.66310119629 
12.647213936 -2.5155563354 5.3289279938 11.676423073 -0.58122158051 5.4127674103 9.7348423004 -2.5155563354 4.9711475372 
15.706685066 -0.58122158051 0.34481716156 11.676423073 -2.6371536255 -0.66310119629 13.618004799 0.3859462738 -1.5315718651 
11.676423073 -0.58122158051 5.4127674103 12.647213936 -2.5155563354 5.3289279938 14.588795662 -0.58122158051 5.5537261963 
15.706685066 -0.58122158051 0.34481716156 14.623501778 -2.5155563354 1.3527355194 11.676423073 -2.6371536255 -0.66310119629 
12.647213936 -2.5155563354 5.3289279938 13.618004799 -2.5155563354 5.2158164978 14.588795662 -0.58122158051 5.5537261963 
19.534061432 1.3531131744 3.3685712814 15.559586525 -2.6786546707 3.3685712814 16.584316254 -1.5483894348 2.3606529236 
15.559586525 -2.3889894485 4.3764896393 15.559586525 -2.6786546707 3.3685712814 19.534061432 1.3531131744 3.3685712814 
18.385852814 0.3859462738 4.3764896393 15.559586525 -2.3889894485 4.3764896393 19.534061432 1.3531131744 3.3685712814 
3.9100990295 -1.5483894348 -2.3679947853 7.793261528 0.3859462738 -3.2648139 5.8516807556 -2.5155563354 -2.3300843239 
15.559586525 -2.3889894485 4.3764896393 14.588795662 -0.58122158051 5.5537261963 13.618004799 -2.5155563354 5.2158164978 
14.588795662 -0.58122158051 5.5537261963 15.559586525 -2.3889894485 4.3764896393 18.385852814 0.3859462738 4.3764896393 
14.623501778 -2.5155563354 1.3527355194 18.692737579 1.3531131744 1.3527355194 16.584316254 -1.5483894348 2.3606529236 
0.87459182739 -1.5483894348 -0.66310119629 0.34833431244 -0.58122158051 0.34481716156 0.64288854599 0.3859462738 -0.66310119629 
1.9685182571 -2.5155563354 -1.4725589752 0.64288854599 0.3859462738 -0.66310119629 1.9685182571 0.3859462738 -1.9608407021 
0.87459182739 -1.5483894348 -0.66310119629 0.64288854599 0.3859462738 -0.66310119629 1.9685182571 -2.5155563354 -1.4725589752 
1.9685182571 -0.58122158051 1.8246765137 1.9685182571 2.3202810287 1.5226392746 0.34833431244 -0.58122158051 0.34481716156 
3.9100990295 -1.5483894348 -2.3679947853 1.9685182571 -2.5155563354 -1.4725589752 1.9685182571 0.3859462738 -1.9608407021 
6.822470665 1.3531131744 3.5613794327 1.9685182571 2.3202810287 1.5226392746 1.9685182571 -0.58122158051 1.8246765137 
6.822470665 1.3531131744 3.5613794327 1.9685182571 -0.58122158051 1.8246765137 6.822470665 -1.5483894348 3.9611711502 
9.7348423004 -2.5155563354 4.9711475372 10.705633163 1.3531131744 4.8646812439 6.822470665 -1.5483894348 3.9611711502 
10.705633163 1.3531131744 4.8646812439 6.822470665 1.3531131744 3.5613794327 6.822470665 -1.5483894348 3.9611711502 
8.7640523911 -2.5155563354 -1.9787869453 5.8516807556 -2.5155563354 -2.3300843239 7.793261528 0.3859462738 -3.2648139 
7.793261528 0.3859462738 -3.2648139 13.618004799 0.3859462738 -1.5315718651 8.7640523911 -2.5155563354 -1.9787869453 
11.676423073 -0.58122158051 5.4127674103 10.705633163 1.3531131744 4.8646812439 9.7348423004 -2.5155563354 4.9711475372 
15.559586525 2.3202810287 5.3745574951 11.676423073 -0.58122158051 5.4127674103 14.588795662 -0.58122158051 5.5537261963 
15.706685066 -0.58122158051 0.34481716156 18.692737579 1.3531131744 1.3527355194 14.623501778 -2.5155563354 1.3527355194 
18.385852814 0.3859462738 4.3764896393 17.501167297 1.3531131744 5.2228660583 14.588795662 -0.58122158051 5.5537261963 
18.692737579 1.3531131744 1.3527355194 18.508674622 0.3859462738 2.3606529236 16.584316254 -1.5483894348 2.3606529236 
16.584316254 -1.5483894348 2.3606529236 18.508674622 0.3859462738 2.3606529236 19.534061432 1.3531131744 3.3685712814 
1.9685182571 0.3859462738 -1.9608407021 0.64288854599 0.3859462738 -0.66310119629 1.9685182571 2.3202810287 -1.6641402245 
15.559586525 2.3202810287 5.3745574951 10.705633163 1.3531131744 4.8646812439 11.676423073 -0.58122158051 5.4127674103 
18.47195816 2.2877206802 0.34481716156 15.706685066 -0.58122158051 0.34481716156 13.618004799 0.3859462738 -1.5315718651 
[...]
CELL_DATA 676
FIELD FieldData 1
GroupIds 1 676 float
0 0 0 0 0 0 0 0 0 
0 0 0 0 0 0 0 0 0 
0 0 0 0 0 0 0 0 0 
0 0 0 0 0 0 0 0 0 
0 0 0 0 0 0 0 0 0 
0 0 0 0 0 0 0 0 0 
0 0 0 0 0 0 0 0 0 
0 0 0 0 0 0 0 0 0 
0 0 0 0 0 0 0 0 0 
0 0 0 0 0 0 0 0 0 
0 0 0 0 0 0 0 0 0 
0 0 0 0 0 0 0 0 0 
0 0 0 0 0 0 0 0 0 
0 0 0 0 0 0 0 0 0 
0 0 0 0 0 0 0 0 0 
0 0 0 0 0 0 0 0 0 
0 0 0 0 0 0 0 0 0 
0 0 0 0 0 0 0 0 0 
0 0 0 0 0 0 0 0 0 
0 0 0 0 0 0 0 0 0 
0 0 0 0 0 0 0 0 0 
0 0 0 0 0 0 0 0 0 
0 0 0 0 0 0 0 0 0 
0 0 0 0 0 0 0 0 0 
0 0 0 0 0 0 0 0 0 
0 0 0 0 0 0 0 0 0 
0 0 0 0 0 0 0 0 0 
0 0 0 0 0 0 0 0 0 
0 0 0 0 0 0 0 0 0 
0 0 0 0 0 0 0 0 0 
0 0 0 0 0 0 0 0 0 
0 0 0 0 0 0 0 0 0 
0 0 0 0 0 0 0 0 0 
0 0 0 0 0 0 0 0 0 
0 0 0 0 0 0 0 0 0 
0 0 0 0 0 0 0 0 0 
0 0 0 0 0 0 0 0 0 
0 0 0 0 0 0 0 0 0 
0 0 0 0 0 0 0 0 0 
0 0 0 0 0 0 0 0 0 
0 0 0 0 0 0 0 0 0 
0 0 0 0 0 0 0 0 0 
0 0 0 0 0 0 0 0 0 
0 0 0 0 0 0 0 0 0 
0 0 0 0 0 0 0 0 0 
0 0 0 0 0 0 0 0 0 
0 0 0 0 0 0 0 0 0 
0 0 0 0 0 0 0 0 0 
0 0 0 0 0 0 0 0 0 
0 0 0 0 0 0 0 0 0 
0 0 0 0 0 0 0 0 0 
0 0 0 0 0 0 0 0 0 
0 0 0 0 0 0 0 0 0 
0 0 0 0 0 0 0 0 0 
0 0 0 0 0 0 0 0 0 
0 0 0 0 0 0 0 0 0 
0 0 0 0 0 0 0 0 0 
0 0 0 0 0 0 0 0 0 
0 0 0 0 0 0 0 0 0 
0 0 0 0 0 0 0 0 0 
0 0 0 0 0 0 0 0 0 
0 0 0 0 0 0 0 0 0 
0 0 0 0 0 0 0 0 0 
0 0 0 0 0 0 0 0 0 
0 0 0 0 0 0 0 0 0 
0 0 0 0 0 0 0 0 0 
0 0 0 0 0 0 0 0 0 
0 0 0 0 0 0 0 0 0 
0 0 0 0 0 0 0 0 0 
0 0 0 0 0 0 0 0 0 
0 0 0 0 0 0 0 0 0 
0 0 0 0 0 0 0 0 0 
0 0 0 0 0 0 0 0 0 
0 0 0 0 0 0 0 0 0 
0 0 0 0 0 0 0 0 0 
0 
POINT_DATA 2028
NORMALS Normals float
-0.413939 -0.901707 -0.124815 -0.413939 -0.901707 -0.124815 -0.413939 -0.901707 -0.124815 
-0.257635 -0.9225 -0.287434 -0.257635 -0.9225 -0.287434 -0.257635 -0.9225 -0.287434 
-0.00656602 -0.998784 -0.0488633 -0.00656602 -0.998784 -0.0488633 -0.00656602 -0.998784 -0.0488633 
-0.00654607 -0.995749 -0.0918715 -0.00654607 -0.995749 -0.0918715 -0.00654607 -0.995749 -0.0918715 
-0.328724 -0.716077 0.615772 -0.328724 -0.716077 0.615772 -0.328724 -0.716077 0.615772 
-0.186942 -0.877021 0.442591 -0.186942 -0.877021 0.442591 -0.186942 -0.877021 0.442591 
0.220872 -0.850229 -0.477834 0.220872 -0.850229 -0.477834 0.220872 -0.850229 -0.477834 
0.43249 -0.897826 -0.0828367 0.43249 -0.897826 -0.0828367 0.43249 -0.897826 -0.0828367 
-0.521826 -0.804247 -0.284401 -0.521826 -0.804247 -0.284401 -0.521826 -0.804247 -0.284401 
-0.438854 -0.890072 -0.123205 -0.438854 -0.890072 -0.123205 -0.438854 -0.890072 -0.123205 
-0.678114 -0.363858 0.638568 -0.678114 -0.363858 0.638568 -0.678114 -0.363858 0.638568 
-0.0247667 -0.701089 -0.712644 -0.0247667 -0.701089 -0.712644 -0.0247667 -0.701089 -0.712644 
-0.427975 -0.447443 0.785259 -0.427975 -0.447443 0.785259 -0.427975 -0.447443 0.785259 
-0.361931 -0.581207 0.728838 -0.361931 -0.581207 0.728838 -0.361931 -0.581207 0.728838 
0.179234 -0.689948 -0.701319 0.179234 -0.689948 -0.701319 0.179234 -0.689948 -0.701319 
0.465683 -0.771465 -0.433568 0.465683 -0.771465 -0.433568 0.465683 -0.771465 -0.433568 
0.495682 -0.670514 -0.552006 0.495682 -0.670514 -0.552006 0.495682 -0.670514 -0.552006 
0.688586 0.647389 -0.326706 0.688586 0.647389 -0.326706 0.688586 0.647389 -0.326706 
-0.176119 -0.695089 0.697017 -0.176119 -0.695089 0.697017 -0.176119 -0.695089 0.697017 
0.426006 -0.884365 -0.190834 0.426006 -0.884365 -0.190834 0.426006 -0.884365 -0.190834 
0.186512 -0.860824 0.473493 0.186512 -0.860824 0.473493 0.186512 -0.860824 0.473493 
-0.817844 -0.574071 0.0396748 -0.817844 -0.574071 0.0396748 -0.817844 -0.574071 0.0396748 
-0.337388 -0.519988 -0.784718 -0.337388 -0.519988 -0.784718 -0.337388 -0.519988 -0.784718 
-0.182696 -0.531209 -0.827308 -0.182696 -0.531209 -0.827308 -0.182696 -0.531209 -0.827308 
-0.125562 -0.395112 -0.910011 -0.125562 -0.395112 -0.910011 -0.125562 -0.395112 -0.910011 
0.303145 -0.571033 -0.762906 0.303145 -0.571033 -0.762906 0.303145 -0.571033 -0.762906 
-0.169235 -0.258372 0.951107 -0.169235 -0.258372 0.951107 -0.169235 -0.258372 0.951107 
-0.112943 -0.376835 0.919369 -0.112943 -0.376835 0.919369 -0.112943 -0.376835 0.919369 
0.371187 -0.709052 0.599555 0.371187 -0.709052 0.599555 0.371187 -0.709052 0.599555 
0.102512 -0.464124 0.879818 0.102512 -0.464124 0.879818 0.102512 -0.464124 0.879818 
0.409817 -0.723517 -0.555493 0.409817 -0.723517 -0.555493 0.409817 -0.723517 -0.555493 
0.526926 -0.847159 -0.0683409 0.526926 -0.847159 -0.0683409 0.526926 -0.847159 -0.0683409 
0.446851 -0.718419 0.533102 0.446851 -0.718419 0.533102 0.446851 -0.718419 0.533102 
0.17911 -0.945556 0.271743 0.17911 -0.945556 0.271743 0.17911 -0.945556 0.271743 
-0.741515 -0.37061 -0.559289 -0.741515 -0.37061 -0.559289 -0.741515 -0.37061 -0.559289 
-0.880998 -0.440323 -0.173084 -0.880998 -0.440323 -0.173084 -0.880998 -0.440323 -0.173084 
-0.628188 -0.440945 0.641052 -0.628188 -0.440945 0.641052 -0.628188 -0.440945 0.641052 
-0.400062 -0.140532 0.90565 -0.400062 -0.140532 0.90565 -0.400062 -0.140532 0.90565 
0.108491 -0.423386 -0.89943 0.108491 -0.423386 -0.89943 0.108491 -0.423386 -0.89943 
-0.362665 -0.128149 0.923066 -0.362665 -0.128149 0.923066 -0.362665 -0.128149 0.923066 
0.319054 -0.567912 -0.758736 0.319054 -0.567912 -0.758736 0.319054 -0.567912 -0.758736 
0.551764 -0.75945 -0.344663 0.551764 -0.75945 -0.344663 0.551764 -0.75945 -0.344663 
0.561479 -0.772821 -0.295787 0.561479 -0.772821 -0.295787 0.561479 -0.772821 -0.295787 
-0.916569 -0.384584 -0.109527 -0.916569 -0.384584 -0.109527 -0.916569 -0.384584 -0.109527 
-0.643916 -0.297294 0.704974 -0.643916 -0.297294 0.704974 -0.643916 -0.297294 0.704974 
-0.63118 -0.264837 0.729022 -0.63118 -0.264837 0.729022 -0.63118 -0.264837 0.729022 
-0.195069 -0.426223 -0.883336 -0.195069 -0.426223 -0.883336 -0.195069 -0.426223 -0.883336 
-0.418604 -0.109269 0.901571 -0.418604 -0.109269 0.901571 -0.418604 -0.109269 0.901571 
0.349729 -0.459202 -0.816592 0.349729 -0.459202 -0.816592 0.349729 -0.459202 -0.816592 
-0.121275 -0.103652 0.987192 -0.121275 -0.103652 0.987192 -0.121275 -0.103652 0.987192 
0.440701 -0.497658 -0.747074 0.440701 -0.497658 -0.747074 0.440701 -0.497658 -0.747074 
-0.0482335 -0.0674007 0.996559 -0.0482335 -0.0674007 0.996559 -0.0482335 -0.0674007 0.996559 
0.46832 -0.600142 -0.648465 0.46832 -0.600142 -0.648465 0.46832 -0.600142 -0.648465 
0.112748 -0.225627 0.967667 0.112748 -0.225627 0.967667 0.112748 -0.225627 0.967667 
0.71073 -0.70063 -0.0630923 0.71073 -0.70063 -0.0630923 0.71073 -0.70063 -0.0630923 
0.698083 -0.688162 0.197771 0.698083 -0.688162 0.197771 0.698083 -0.688162 0.197771 
0.696135 -0.709012 0.112683 0.696135 -0.709012 0.112683 0.696135 -0.709012 0.112683 
-0.101987 -0.242555 -0.964762 -0.101987 -0.242555 -0.964762 -0.101987 -0.242555 -0.964762 
0.391263 -0.345377 0.853011 0.391263 -0.345377 0.853011 0.391263 -0.345377 0.853011 
0.359374 -0.366022 0.858416 0.359374 -0.366022 0.858416 0.359374 -0.366022 0.858416 
0.579027 -0.609046 -0.542024 0.579027 -0.609046 -0.542024 0.579027 -0.609046 -0.542024 
-0.920518 -0.110264 -0.374818 -0.920518 -0.110264 -0.374818 -0.920518 -0.110264 -0.374818 
-0.694546 -0.119394 -0.709472 -0.694546 -0.119394 -0.709472 -0.694546 -0.119394 -0.709472 
-0.635724 -0.0761499 -0.768151 -0.635724 -0.0761499 -0.768151 -0.635724 -0.0761499 -0.768151 
-0.672426 0.0766347 0.736187 -0.672426 0.0766347 0.736187 -0.672426 0.0766347 0.736187 
-0.348762 -0.155532 -0.924216 -0.348762 -0.155532 -0.924216 -0.348762 -0.155532 -0.924216 
-0.369089 0.096227 0.924399 -0.369089 0.096227 0.924399 -0.369089 0.096227 0.924399 
-0.378432 0.126347 0.916965 -0.378432 0.126347 0.916965 -0.378432 0.126347 0.916965 
-0.296054 0.100432 0.949877 -0.296054 0.100432 0.949877 -0.296054 0.100432 0.949877 
-0.315505 0.129526 0.940042 -0.315505 0.129526 0.940042 -0.315505 0.129526 0.940042 
0.11119 -0.371367 -0.921804 0.11119 -0.371367 -0.921804 0.11119 -0.371367 -0.921804 
0.270889 -0.312858 -0.910351 0.270889 -0.312858 -0.910351 0.270889 -0.312858 -0.910351 
-0.319938 0.106193 0.941468 -0.319938 0.106193 0.941468 -0.319938 0.106193 0.941468 
-0.0481976 0.0776181 0.995817 -0.0481976 0.0776181 0.995817 -0.0481976 0.0776181 0.995817 
0.577597 -0.607542 -0.545229 0.577597 -0.607542 -0.545229 0.577597 -0.607542 -0.545229 
0.363111 -0.403015 0.840077 0.363111 -0.403015 0.840077 0.363111 -0.403015 0.840077 
0.621886 -0.618679 -0.480098 0.621886 -0.618679 -0.480098 0.621886 -0.618679 -0.480098 
0.708233 -0.70458 -0.0444147 0.708233 -0.70458 -0.0444147 0.708233 -0.70458 -0.0444147 
-0.695385 0.108955 -0.71033 -0.695385 0.108955 -0.71033 -0.695385 0.108955 -0.71033 
-0.142234 0.203114 0.968769 -0.142234 0.203114 0.968769 -0.142234 0.203114 0.968769 
0.470309 -0.453314 -0.757176 0.470309 -0.453314 -0.757176 0.470309 -0.453314 -0.757176 
0.561889 -0.541586 -0.625272 0.561889 -0.541586 -0.625272 0.561889 -0.541586 -0.625272 
0.772138 -0.462116 0.436179 0.772138 -0.462116 0.436179 0.772138 -0.462116 0.436179 
-0.939677 0.338377 0.0500852 -0.939677 0.338377 0.0500852 -0.939677 0.338377 0.0500852 
-0.85489 0.307846 0.417605 -0.85489 0.307846 0.417605 -0.85489 0.307846 0.417605 
-0.26652 -0.0651069 -0.961628 -0.26652 -0.0651069 -0.961628 -0.26652 -0.0651069 -0.961628 
-0.318073 0.299683 0.899455 -0.318073 0.299683 0.899455 -0.318073 0.299683 0.899455 
-0.169079 -0.11444 -0.978936 -0.169079 -0.11444 -0.978936 -0.169079 -0.11444 -0.978936 
0.182566 -0.229536 -0.956025 0.182566 -0.229536 -0.956025 0.182566 -0.229536 -0.956025 
-0.298128 0.349435 0.888265 -0.298128 0.349435 0.888265 -0.298128 0.349435 0.888265 
0.267756 -0.344419 -0.899823 0.267756 -0.344419 -0.899823 0.267756 -0.344419 -0.899823 
0.35531 -0.280996 -0.891513 0.35531 -0.280996 -0.891513 0.35531 -0.280996 -0.891513 
-0.143472 0.210226 0.967068 -0.143472 0.210226 0.967068 -0.143472 0.210226 0.967068 
0.462001 -0.396415 -0.793353 0.462001 -0.396415 -0.793353 0.462001 -0.396415 -0.793353 
0.0928856 0.0303769 0.995213 0.0928856 0.0303769 0.995213 0.0928856 0.0303769 0.995213 
0.491883 -0.273438 0.826609 0.491883 -0.273438 0.826609 0.491883 -0.273438 0.826609 
-0.826139 0.329693 -0.456944 -0.826139 0.329693 -0.456944 -0.826139 0.329693 -0.456944 
-0.926006 0.369547 -0.0771253 -0.926006 0.369547 -0.0771253 -0.926006 0.369547 -0.0771253 
-0.51483 0.129977 -0.847382 -0.51483 0.129977 -0.847382 -0.51483 0.129977 -0.847382 
-0.48805 0.517902 0.702555 -0.48805 0.517902 0.702555 -0.48805 0.517902 0.702555 
-0.333404 0.369254 0.867464 -0.333404 0.369254 0.867464 -0.333404 0.369254 0.867464 
-0.275355 -0.0649389 -0.959147 -0.275355 -0.0649389 -0.959147 -0.275355 -0.0649389 -0.959147 
-0.17175 -0.114933 -0.978413 -0.17175 -0.114933 -0.978413 -0.17175 -0.114933 -0.978413 
-0.263597 0.353135 0.897671 -0.263597 0.353135 0.897671 -0.263597 0.353135 0.897671 
-0.248304 0.428587 0.868711 -0.248304 0.428587 0.868711 -0.248304 0.428587 0.868711 
0.782263 -0.571847 -0.247093 0.782263 -0.571847 -0.247093 0.782263 -0.571847 -0.247093 
0.58273 -0.425985 0.692071 0.58273 -0.425985 0.692071 0.58273 -0.425985 0.692071 
-0.243356 0.503949 0.828742 -0.243356 0.503949 0.828742 -0.243356 0.503949 0.828742 
0.18751 0.0259996 -0.981919 0.18751 0.0259996 -0.981919 0.18751 0.0259996 -0.981919 
-0.252999 0.390547 0.885135 -0.252999 0.390547 0.885135 -0.252999 0.390547 0.885135 
-0.250859 0.393936 0.884242 -0.250859 0.393936 0.884242 -0.250859 0.393936 0.884242 
-0.0895228 0.26211 0.960877 -0.0895228 0.26211 0.960877 -0.0895228 0.26211 0.960877 
0.345228 -0.0977711 0.933412 0.345228 -0.0977711 0.933412 0.345228 -0.0977711 0.933412 
0.122746 0.0914179 0.988219 0.122746 0.0914179 0.988219 0.122746 0.0914179 0.988219 
0.603903 -0.514162 -0.609047 0.603903 -0.514162 -0.609047 0.603903 -0.514162 -0.609047 
0.693789 -0.578731 -0.428634 0.693789 -0.578731 -0.428634 0.693789 -0.578731 -0.428634 
0.770127 -0.592497 -0.236331 0.770127 -0.592497 -0.236331 0.770127 -0.592497 -0.236331 
0.785584 -0.604389 -0.132558 0.785584 -0.604389 -0.132558 0.785584 -0.604389 -0.132558 
-0.469307 0.60556 0.642688 -0.469307 0.60556 0.642688 -0.469307 0.60556 0.642688 
-0.544212 0.233212 -0.805882 -0.544212 0.233212 -0.805882 -0.544212 0.233212 -0.805882 
-0.415632 0.180069 -0.89153 -0.415632 0.180069 -0.89153 -0.415632 0.180069 -0.89153 
-0.237737 0.570653 0.786026 -0.237737 0.570653 0.786026 -0.237737 0.570653 0.786026 
-0.211382 0.479118 0.851918 -0.211382 0.479118 0.851918 -0.211382 0.479118 0.851918 
-0.300656 0.49553 0.814896 -0.300656 0.49553 0.814896 -0.300656 0.49553 0.814896 
0.205396 0.0321248 -0.978152 0.205396 0.0321248 -0.978152 0.205396 0.0321248 -0.978152 
0.256631 0.0137723 -0.966411 0.256631 0.0137723 -0.966411 0.256631 0.0137723 -0.966411 
0.364822 -0.170253 -0.915379 0.364822 -0.170253 -0.915379 0.364822 -0.170253 -0.915379 
-0.191397 0.381139 0.904489 -0.191397 0.381139 0.904489 -0.191397 0.381139 0.904489 
0.114674 0.103509 0.987996 0.114674 0.103509 0.987996 0.114674 0.103509 0.987996 
0.480057 -0.459184 -0.74746 0.480057 -0.459184 -0.74746 0.480057 -0.459184 -0.74746 
0.463255 -0.394415 -0.79362 0.463255 -0.394415 -0.79362 0.463255 -0.394415 -0.79362 
0.623999 -0.520514 -0.58283 0.623999 -0.520514 -0.58283 0.623999 -0.520514 -0.58283 
-0.635706 0.410157 -0.653949 -0.635706 0.410157 -0.653949 -0.635706 0.410157 -0.653949 
-0.609949 0.778795 0.146425 -0.609949 0.778795 0.146425 -0.609949 0.778795 0.146425 
-0.607358 0.783691 0.130172 -0.607358 0.783691 0.130172 -0.607358 0.783691 0.130172 
-0.703442 0.45413 -0.54675 -0.703442 0.45413 -0.54675 -0.703442 0.45413 -0.54675 
-0.364994 0.355128 -0.860618 -0.364994 0.355128 -0.860618 -0.364994 0.355128 -0.860618 
-0.0599859 0.754651 0.653378 -0.0599859 0.754651 0.653378 -0.0599859 0.754651 0.653378 
-0.0357238 0.0228175 -0.999101 -0.0357238 0.0228175 -0.999101 -0.0357238 0.0228175 -0.999101 
0.11786 0.0738966 -0.990277 0.11786 0.0738966 -0.990277 0.11786 0.0738966 -0.990277 
0.844302 -0.376784 0.381036 0.844302 -0.376784 0.381036 0.844302 -0.376784 0.381036 
0.720378 -0.321481 0.614578 0.720378 -0.321481 0.614578 0.720378 -0.321481 0.614578 
0.545999 -0.0872772 0.833228 0.545999 -0.0872772 0.833228 0.545999 -0.0872772 0.833228 
-0.580477 0.741165 0.337225 -0.580477 0.741165 0.337225 -0.580477 0.741165 0.337225 
-0.367314 0.417613 -0.831072 -0.367314 0.417613 -0.831072 -0.367314 0.417613 -0.831072 
-0.489921 0.557009 -0.67061 -0.489921 0.557009 -0.67061 -0.489921 0.557009 -0.67061 
-0.355606 0.932486 0.0633644 -0.355606 0.932486 0.0633644 -0.355606 0.932486 0.0633644 
0.227012 0.793836 0.564172 0.227012 0.793836 0.564172 0.227012 0.793836 0.564172 
0.104562 0.466068 -0.878548 0.104562 0.466068 -0.878548 0.104562 0.466068 -0.878548 
-0.0301026 0.646789 -0.762075 -0.0301026 0.646789 -0.762075 -0.0301026 0.646789 -0.762075 
-0.311921 0.774449 0.550394 -0.311921 0.774449 0.550394 -0.311921 0.774449 0.550394 
-0.276849 0.600248 0.750371 -0.276849 0.600248 0.750371 -0.276849 0.600248 0.750371 
0.1843 0.442384 -0.877684 0.1843 0.442384 -0.877684 0.1843 0.442384 -0.877684 
-0.266148 0.58993 0.762331 -0.266148 0.58993 0.762331 -0.266148 0.58993 0.762331 
0.0429405 0.500634 -0.864594 0.0429405 0.500634 -0.864594 0.0429405 0.500634 -0.864594 
0.284998 0.0763922 -0.955479 0.284998 0.0763922 -0.955479 0.284998 0.0763922 -0.955479 
0.0435146 0.0796219 -0.995875 0.0435146 0.0796219 -0.995875 0.0435146 0.0796219 -0.995875 
0.16324 0.0306006 -0.986112 0.16324 0.0306006 -0.986112 0.16324 0.0306006 -0.986112 
-0.176244 0.307151 0.935198 -0.176244 0.307151 0.935198 -0.176244 0.307151 0.935198 
0.291219 -0.248999 -0.923684 0.291219 -0.248999 -0.923684 0.291219 -0.248999 -0.923684 
0.263958 -0.236585 -0.935069 0.263958 -0.236585 -0.935069 0.263958 -0.236585 -0.935069 
0.647853 -0.491874 -0.581676 0.647853 -0.491874 -0.581676 0.647853 -0.491874 -0.581676 
0.416988 -0.475764 -0.774448 0.416988 -0.475764 -0.774448 0.416988 -0.475764 -0.774448 
0.689259 -0.537783 -0.485501 0.689259 -0.537783 -0.485501 0.689259 -0.537783 -0.485501 
0.767725 -0.599005 -0.227576 0.767725 -0.599005 -0.227576 0.767725 -0.599005 -0.227576 
0.799807 -0.423783 0.425108 0.799807 -0.423783 0.425108 0.799807 -0.423783 0.425108 
0.880905 -0.466753 -0.0784134 0.880905 -0.466753 -0.0784134 0.880905 -0.466753 -0.0784134 
-0.347391 0.910943 -0.222492 -0.347391 0.910943 -0.222492 -0.347391 0.910943 -0.222492 
-0.00248168 0.82887 -0.559435 -0.00248168 0.82887 -0.559435 -0.00248168 0.82887 -0.559435 
-0.110821 0.96546 -0.235808 -0.110821 0.96546 -0.235808 -0.110821 0.96546 -0.235808 
-0.113932 0.992566 -0.0428012 -0.113932 0.992566 -0.0428012 -0.113932 0.992566 -0.0428012 
-0.278048 0.823292 0.494853 -0.278048 0.823292 0.494853 -0.278048 0.823292 0.494853 
0.138418 0.492186 -0.859414 0.138418 0.492186 -0.859414 0.138418 0.492186 -0.859414 
-0.0744302 0.85138 -0.519242 -0.0744302 0.85138 -0.519242 -0.0744302 0.85138 -0.519242 
0.544581 -0.525324 -0.653809 0.544581 -0.525324 -0.653809 0.544581 -0.525324 -0.653809 
0.570015 -0.150532 0.807728 0.570015 -0.150532 0.807728 0.570015 -0.150532 0.807728 
-0.0716996 0.820146 -0.567643 -0.0716996 0.820146 -0.567643 -0.0716996 0.820146 -0.567643 
-0.370707 0.902725 0.218322 -0.370707 0.902725 0.218322 -0.370707 0.902725 0.218322 
-0.539723 0.64395 0.542243 -0.539723 0.64395 0.542243 -0.539723 0.64395 0.542243 
-0.512625 0.643885 0.568003 -0.512625 0.643885 0.568003 -0.512625 0.643885 0.568003 
-0.255867 0.272493 -0.927513 -0.255867 0.272493 -0.927513 -0.255867 0.272493 -0.927513 
-0.374305 0.470148 0.799285 -0.374305 0.470148 0.799285 -0.374305 0.470148 0.799285 
-0.0735715 -0.128098 -0.989029 -0.0735715 -0.128098 -0.989029 -0.0735715 -0.128098 -0.989029 
0.119926 -0.165478 -0.978895 0.119926 -0.165478 -0.978895 0.119926 -0.165478 -0.978895 
-0.258589 0.383062 0.886789 -0.258589 0.383062 0.886789 -0.258589 0.383062 0.886789 
0.44821 -0.325823 -0.832434 0.44821 -0.325823 -0.832434 0.44821 -0.325823 -0.832434 
0.123885 0.122421 0.984716 0.123885 0.122421 0.984716 0.123885 0.122421 0.984716 
0.259825 0.0733022 0.962869 0.259825 0.0733022 0.962869 0.259825 0.0733022 0.962869 
0.799133 -0.446216 -0.402836 0.799133 -0.446216 -0.402836 0.799133 -0.446216 -0.402836 
0.730328 -0.215805 0.648112 0.730328 -0.215805 0.648112 0.730328 -0.215805 0.648112 
-0.488888 0.717298 -0.49646 -0.488888 0.717298 -0.49646 -0.488888 0.717298 -0.49646 
-0.640632 0.755837 -0.135282 -0.640632 0.755837 -0.135282 -0.640632 0.755837 -0.135282 
-0.54059 0.637804 0.548607 -0.54059 0.637804 0.548607 -0.54059 0.637804 0.548607 
-0.467968 0.250254 -0.847572 -0.467968 0.250254 -0.847572 -0.467968 0.250254 -0.847572 
-0.433188 0.471759 0.767979 -0.433188 0.471759 0.767979 -0.433188 0.471759 0.767979 
0.267445 -0.249725 -0.93065 0.267445 -0.249725 -0.93065 0.267445 -0.249725 -0.93065 
0.272468 -0.249361 -0.92929 0.272468 -0.249361 -0.92929 0.272468 -0.249361 -0.92929 
0.647877 -0.277645 -0.709344 0.647877 -0.277645 -0.709344 0.647877 -0.277645 -0.709344 
0.671661 -0.375039 -0.638919 0.671661 -0.375039 -0.638919 0.671661 -0.375039 -0.638919 
-0.694538 0.716623 0.063793 -0.694538 0.716623 0.063793 -0.694538 0.716623 0.063793 
-0.609182 0.628553 -0.483547 -0.609182 0.628553 -0.483547 -0.609182 0.628553 -0.483547 
-0.666355 0.636334 0.388651 -0.666355 0.636334 0.388651 -0.666355 0.636334 0.388651 
-0.525714 0.502029 0.686726 -0.525714 0.502029 0.686726 -0.525714 0.502029 0.686726 
-0.509291 0.501653 0.699262 -0.509291 0.501653 0.699262 -0.509291 0.501653 0.699262 
-0.390317 0.409166 0.824765 -0.390317 0.409166 0.824765 -0.390317 0.409166 0.824765 
-0.0656322 0.269222 0.960839 -0.0656322 0.269222 0.960839 -0.0656322 0.269222 0.960839 
0.559072 -0.351769 -0.750797 0.559072 -0.351769 -0.750797 0.559072 -0.351769 -0.750797 
0.801083 -0.446435 -0.3987 0.801083 -0.446435 -0.3987 0.801083 -0.446435 -0.3987 
0.872876 -0.486445 -0.0381921 0.872876 -0.486445 -0.0381921 0.872876 -0.486445 -0.0381921 
-0.704498 0.437004 -0.559205 -0.704498 0.437004 -0.559205 -0.704498 0.437004 -0.559205 
-0.832261 0.516256 0.202041 -0.832261 0.516256 0.202041 -0.832261 0.516256 0.202041 
-0.787362 0.612234 0.072319 -0.787362 0.612234 0.072319 -0.787362 0.612234 0.072319 