# vtk DataFile Version 4.2
3D Slicer output. SPACE=LPS
ASCII
DATASET POLYDATA
POINTS 2052 double
6.2472763062 -6.5694332123 1.4813575745 8.2946186066 -6.4181036949 0.45204925537 8.2946186066 -6.5225515366 2.5106658936 
4.1999340057 -5.4587063789 -0.57725906372 6.2472763062 -6.5694332123 1.4813575745 3.1762628555 -4.9878902435 0.45204925537 
6.2472763062 -6.5694332123 1.4813575745 3.696146965 -4.7390561104 1.4813575745 3.1762628555 -4.9878902435 0.45204925537 
6.2472763062 -6.5694332123 1.4813575745 6.2472763062 -5.7482976913 2.5806274414 3.696146965 -4.7390561104 1.4813575745 
6.2472763062 -5.7482976913 2.5806274414 6.2472763062 -6.5694332123 1.4813575745 8.2946186066 -6.5225515366 2.5106658936 
6.2472763062 -5.8037552834 -0.57725906372 8.2946186066 -6.4181036949 0.45204925537 6.2472763062 -6.5694332123 1.4813575745 
11.365632057 -5.4018726349 0.45204925537 11.365632057 -5.9724383354 1.4813575745 8.2946186066 -6.4181036949 0.45204925537 
11.365632057 -5.9724383354 1.4813575745 11.365632057 -6.1452350616 2.5106658936 8.2946186066 -6.4181036949 0.45204925537 
8.2946186066 -6.4181036949 0.45204925537 11.365632057 -6.1452350616 2.5106658936 8.2946186066 -6.5225515366 2.5106658936 
11.365632057 -6.1452350616 2.5106658936 10.341960907 -5.8340601921 3.5399742126 8.2946186066 -6.5225515366 2.5106658936 
11.365632057 -5.7186527252 3.5399742126 10.341960907 -5.8340601921 3.5399742126 11.365632057 -6.1452350616 2.5106658936 
4.1999340057 -5.4587063789 -0.57725906372 4.1999340057 -4.7390561104 -1.2573490143 6.2472763062 -5.8037552834 -0.57725906372 
6.2472763062 -6.5694332123 1.4813575745 4.1999340057 -5.4587063789 -0.57725906372 6.2472763062 -5.8037552834 -0.57725906372 
3.696146965 -4.7390561104 1.4813575745 6.2472763062 -5.7482976913 2.5806274414 6.2472763062 -3.7298145294 3.3291397095 
8.2946186066 -4.7390561104 -1.3754606247 6.2472763062 -5.8037552834 -0.57725906372 4.1999340057 -4.7390561104 -1.2573490143 
6.2472763062 -5.8037552834 -0.57725906372 8.2946186066 -4.7390561104 -1.3754606247 8.2946186066 -6.4181036949 0.45204925537 
8.2946186066 -4.7390561104 -1.3754606247 12.389302254 -2.7205724716 -1.6428098679 8.2946186066 -6.4181036949 0.45204925537 
6.2472763062 -5.7482976913 2.5806274414 8.2946186066 -6.5225515366 2.5106658936 10.341960907 -5.8340601921 3.5399742126 
4.1999340057 -5.4587063789 -0.57725906372 1.851606369 -3.7298145294 -0.57725906372 2.1283540726 -2.7205724716 -1.6065673828 
4.1999340057 -5.4587063789 -0.57725906372 2.1283540726 -2.7205724716 -1.6065673828 4.1999340057 -4.7390561104 -1.2573490143 
3.1762628555 -4.9878902435 0.45204925537 1.851606369 -3.7298145294 -0.57725906372 4.1999340057 -5.4587063789 -0.57725906372 
1.8711476326 -3.7298145294 0.45204925537 1.851606369 -3.7298145294 -0.57725906372 3.1762628555 -4.9878902435 0.45204925537 
3.1762628555 -4.9878902435 0.45204925537 3.696146965 -4.7390561104 1.4813575745 1.8711476326 -3.7298145294 0.45204925537 
9.3182897568 -3.7298145294 4.309627533 6.2472763062 -3.7298145294 3.3291397095 6.2472763062 -5.7482976913 2.5806274414 
10.341960907 -5.8340601921 3.5399742126 9.3182897568 -3.7298145294 4.309627533 6.2472763062 -5.7482976913 2.5806274414 
11.365632057 -5.4018726349 0.45204925537 8.2946186066 -6.4181036949 0.45204925537 12.389302254 -2.7205724716 -1.6428098679 
12.389302254 -3.7298145294 4.4800415039 9.3182897568 -3.7298145294 4.309627533 10.341960907 -5.8340601921 3.5399742126 
11.365632057 -5.7186527252 3.5399742126 12.389302254 -3.7298145294 4.4800415039 10.341960907 -5.8340601921 3.5399742126 
11.365632057 -6.1452350616 2.5106658936 15.460316658 -3.467215538 3.5399742126 11.365632057 -5.7186527252 3.5399742126 
11.365632057 -5.7186527252 3.5399742126 15.460316658 -3.467215538 3.5399742126 12.389302254 -3.7298145294 4.4800415039 
16.483985901 -3.0823087692 1.4813575745 11.365632057 -5.9724383354 1.4813575745 11.365632057 -5.4018726349 0.45204925537 
16.483985901 -3.0823087692 1.4813575745 15.460316658 -3.8663740158 2.5106658936 11.365632057 -5.9724383354 1.4813575745 
11.365632057 -5.9724383354 1.4813575745 15.460316658 -3.8663740158 2.5106658936 11.365632057 -6.1452350616 2.5106658936 
15.460316658 -3.8663740158 2.5106658936 15.460316658 -3.467215538 3.5399742126 11.365632057 -6.1452350616 2.5106658936 
2.1525917053 -1.7113313675 1.746887207 1.8711476326 -3.7298145294 0.45204925537 3.696146965 -4.7390561104 1.4813575745 
4.1999340057 -4.7390561104 -1.2573490143 2.1283540726 -2.7205724716 -1.6065673828 4.1999340057 -2.7205724716 -2.2870769501 
3.696146965 -4.7390561104 1.4813575745 6.2472763062 -3.7298145294 3.3291397095 2.1525917053 -1.7113313675 1.746887207 
8.2946186066 -4.7390561104 -1.3754606247 4.1999340057 -4.7390561104 -1.2573490143 8.2946186066 -1.7113313675 -3.1035137177 
8.2946186066 -0.70208930969 3.9888210297 6.2472763062 -3.7298145294 3.3291397095 9.3182897568 -3.7298145294 4.309627533 
11.365632057 -2.7205724716 4.6683883667 8.2946186066 -0.70208930969 3.9888210297 9.3182897568 -3.7298145294 4.309627533 
11.365632057 -2.7205724716 4.6683883667 9.3182897568 -3.7298145294 4.309627533 12.389302254 -3.7298145294 4.4800415039 
15.460316658 -3.467215538 3.5399742126 15.460316658 -2.7205724716 4.1110954285 12.389302254 -3.7298145294 4.4800415039 
0.58990573883 -0.70208930969 -0.57725906372 1.8711476326 -3.7298145294 0.45204925537 0.42095088959 0.30715274811 0.45204925537 
0.58990573883 -0.70208930969 -0.57725906372 2.1283540726 -2.7205724716 -1.6065673828 1.851606369 -3.7298145294 -0.57725906372 
1.8711476326 -3.7298145294 0.45204925537 0.58990573883 -0.70208930969 -0.57725906372 1.851606369 -3.7298145294 -0.57725906372 
1.8711476326 -3.7298145294 0.45204925537 2.1525917053 -1.7113313675 1.746887207 0.42095088959 0.30715274811 0.45204925537 
6.2472763062 -3.7298145294 3.3291397095 8.2946186066 -0.70208930969 3.9888210297 2.1525917053 -1.7113313675 1.746887207 
8.2946186066 -1.7113313675 -3.1035137177 4.1999340057 -4.7390561104 -1.2573490143 4.1999340057 -2.7205724716 -2.2870769501 
8.2946186066 -4.7390561104 -1.3754606247 8.2946186066 -1.7113313675 -3.1035137177 12.389302254 -2.7205724716 -1.6428098679 
11.365632057 -2.7205724716 4.6683883667 12.389302254 -3.7298145294 4.4800415039 15.460316658 -2.7205724716 4.1110954285 
11.365632057 -5.4018726349 0.45204925537 17.507659912 -0.11817264557 -1.6065673828 16.483985901 -3.0823087692 1.4813575745 
16.483985901 -3.0823087692 1.4813575745 18.531330109 -1.3696022034 2.5106658936 15.460316658 -3.8663740158 2.5106658936 
18.531330109 -1.3696022034 2.5106658936 15.460316658 -2.7205724716 4.1110954285 15.460316658 -3.467215538 3.5399742126 
18.531330109 -1.3696022034 2.5106658936 15.460316658 -3.467215538 3.5399742126 15.460316658 -3.8663740158 2.5106658936 
18.531330109 -1.3696022034 2.5106658936 16.483985901 -3.0823087692 1.4813575745 19.485412598 -0.70208930969 1.4813575745 
2.1283540726 -2.7205724716 -1.6065673828 0.58990573883 -0.70208930969 -0.57725906372 2.1525917053 0.30715274811 -2.1685934067 
2.1525917053 -1.7113313675 1.746887207 2.1525917053 1.3163938522 1.7863121033 0.42095088959 0.30715274811 0.45204925537 
4.1999340057 -2.7205724716 -2.2870769501 2.1283540726 -2.7205724716 -1.6065673828 5.2236051559 1.3163938522 -3.4397945404 
5.2236051559 1.3163938522 -3.4397945404 2.1283540726 -2.7205724716 -1.6065673828 2.1525917053 0.30715274811 -2.1685934067 
8.2946186066 -0.70208930969 3.9888210297 2.1525917053 1.3163938522 1.7863121033 2.1525917053 -1.7113313675 1.746887207 
17.507659912 1.3163938522 -2.6553211212 12.389302254 -2.7205724716 -1.6428098679 8.2946186066 -1.7113313675 -3.1035137177 
15.460316658 -2.7205724716 4.1110954285 14.436646461 0.30715274811 4.4200572968 11.365632057 -2.7205724716 4.6683883667 
12.389302254 -2.7205724716 -1.6428098679 17.507659912 -0.11817264557 -1.6065673828 11.365632057 -5.4018726349 0.45204925537 
15.460316658 -2.7205724716 4.1110954285 16.483985901 0.30715274811 4.087518692 14.436646461 0.30715274811 4.4200572968 
15.460316658 -2.7205724716 4.1110954285 18.531330109 -1.3696022034 2.5106658936 18.531330109 0.30715274811 3.3534431458 
15.460316658 -2.7205724716 4.1110954285 18.531330109 0.30715274811 3.3534431458 16.483985901 0.30715274811 4.087518692 
16.483985901 -3.0823087692 1.4813575745 17.507659912 -0.11817264557 -1.6065673828 20.849380493 1.3163938522 -0.57725906372 
19.485412598 -0.70208930969 1.4813575745 16.483985901 -3.0823087692 1.4813575745 20.849380493 1.3163938522 -0.57725906372 
4.1999340057 -2.7205724716 -2.2870769501 5.2236051559 1.3163938522 -3.4397945404 7.2709474564 2.32563591 -4.1716823578 
7.2709474564 2.32563591 -4.1716823578 10.341960907 2.32563591 -4.4244775772 8.2946186066 -1.7113313675 -3.1035137177 
4.1999340057 -2.7205724716 -2.2870769501 7.2709474564 2.32563591 -4.1716823578 8.2946186066 -1.7113313675 -3.1035137177 
8.2946186066 -1.7113313675 -3.1035137177 10.341960907 2.32563591 -4.4244775772 12.389302254 2.32563591 -4.2950839996 
13.412974358 1.3163938522 4.1783771515 7.2709474564 2.32563591 2.9381637573 8.2946186066 -0.70208930969 3.9888210297 
13.412974358 1.3163938522 4.1783771515 8.2946186066 -0.70208930969 3.9888210297 11.365632057 -2.7205724716 4.6683883667 
14.436646461 0.30715274811 4.4200572968 13.412974358 1.3163938522 4.1783771515 11.365632057 -2.7205724716 4.6683883667 
17.507659912 -0.11817264557 -1.6065673828 12.389302254 -2.7205724716 -1.6428098679 17.507659912 1.3163938522 -2.6553211212 
17.507659912 -0.11817264557 -1.6065673828 21.602344513 3.3348770142 -2.4176425934 20.849380493 1.3163938522 -0.57725906372 
19.485412598 -0.70208930969 1.4813575745 21.635066986 2.32563591 1.4813575745 18.531330109 -1.3696022034 2.5106658936 
18.531330109 -1.3696022034 2.5106658936 21.635066986 2.32563591 1.4813575745 18.531330109 0.30715274811 3.3534431458 
1.8124871254 2.32563591 -1.6065673828 2.1525917053 0.30715274811 -2.1685934067 0.58990573883 -0.70208930969 -0.57725906372 
0.73493003845 1.3163938522 -0.57725906372 1.8124871254 2.32563591 -1.6065673828 0.58990573883 -0.70208930969 -0.57725906372 
[...]
CELL_DATA 684
FIELD FieldData 1
GroupIds 1 684 float
0 0 0 0 0 0 0 0 0 
0 0 0 0 0 0 0 0 0 
0 0 0 0 0 0 0 0 0 
0 0 0 0 0 0 0 0 0 
0 0 0 0 0 0 0 0 0 
0 0 0 0 0 0 0 0 0 
0 0 0 0 0 0 0 0 0 
0 0 0 0 0 0 0 0 0 
0 0 0 0 0 0 0 0 0 
0 0 0 0 0 0 0 0 0 
0 0 0 0 0 0 0 0 0 
0 0 0 0 0 0 0 0 0 
0 0 0 0 0 0 0 0 0 
0 0 0 0 0 0 0 0 0 
0 0 0 0 0 0 0 0 0 
0 0 0 0 0 0 0 0 0 
0 0 0 0 0 0 0 0 0 
0 0 0 0 0 0 0 0 0 
0 0 0 0 0 0 0 0 0 
0 0 0 0 0 0 0 0 0 
0 0 0 0 0 0 0 0 0 
0 0 0 0 0 0 0 0 0 
0 0 0 0 0 0 0 0 0 
0 0 0 0 0 0 0 0 0 
0 0 0 0 0 0 0 0 0 
0 0 0 0 0 0 0 0 0 
0 0 0 0 0 0 0 0 0 
0 0 0 0 0 0 0 0 0 
0 0 0 0 0 0 0 0 0 
0 0 0 0 0 0 0 0 0 
0 0 0 0 0 0 0 0 0 
0 0 0 0 0 0 0 0 0 
0 0 0 0 0 0 0 0 0 
0 0 0 0 0 0 0 0 0 
0 0 0 0 0 0 0 0 0 
0 0 0 0 0 0 0 0 0 
0 0 0 0 0 0 0 0 0 
0 0 0 0 0 0 0 0 0 
0 0 0 0 0 0 0 0 0 
0 0 0 0 0 0 0 0 0 
0 0 0 0 0 0 0 0 0 
0 0 0 0 0 0 0 0 0 
0 0 0 0 0 0 0 0 0 
0 0 0 0 0 0 0 0 0 
0 0 0 0 0 0 0 0 0 
0 0 0 0 0 0 0 0 0 
0 0 0 0 0 0 0 0 0 
0 0 0 0 0 0 0 0 0 
0 0 0 0 0 0 0 0 0 
0 0 0 0 0 0 0 0 0 
0 0 0 0 0 0 0 0 0 
0 0 0 0 0 0 0 0 0 
0 0 0 0 0 0 0 0 0 
0 0 0 0 0 0 0 0 0 
0 0 0 0 0 0 0 0 0 
0 0 0 0 0 0 0 0 0 
0 0 0 0 0 0 0 0 0 
0 0 0 0 0 0 0 0 0 
0 0 0 0 0 0 0 0 0 
0 0 0 0 0 0 0 0 0 
0 0 0 0 0 0 0 0 0 
0 0 0 0 0 0 0 0 0 
0 0 0 0 0 0 0 0 0 
0 0 0 0 0 0 0 0 0 
0 0 0 0 0 0 0 0 0 
0 0 0 0 0 0 0 0 0 
0 0 0 0 0 0 0 0 0 
0 0 0 0 0 0 0 0 0 
0 0 0 0 0 0 0 0 0 
0 0 0 0 0 0 0 0 0 
0 0 0 0 0 0 0 0 0 
0 0 0 0 0 0 0 0 0 
0 0 0 0 0 0 0 0 0 
0 0 0 0 0 0 0 0 0 
0 0 0 0 0 0 0 0 0 
0 0 0 0 0 0 0 0 0 

POINT_DATA 2052
NORMALS Normals float
0.0482884 -0.99755 -0.0506126 0.0482884 -0.99755 -0.0506126 0.0482884 -0.99755 -0.0506126 
-0.447788 -0.893387 -0.0366913 -0.447788 -0.893387 -0.0366913 -0.447788 -0.893387 -0.0366913 
-0.523309 -0.729373 0.440639 -0.523309 -0.729373 0.440639 -0.523309 -0.729373 0.440639 
-0.498349 -0.694586 0.518844 -0.498349 -0.694586 0.518844 -0.498349 -0.694586 0.518844 
-0.271885 -0.770979 0.575908 -0.271885 -0.770979 0.575908 -0.271885 -0.770979 0.575908 
-0.105394 -0.932049 -0.346665 -0.105394 -0.932049 -0.346665 -0.105394 -0.932049 -0.346665 
0.27801 -0.840137 -0.465704 0.27801 -0.840137 -0.465704 0.27801 -0.840137 -0.465704 
0.194803 -0.967307 -0.162388 0.194803 -0.967307 -0.162388 0.194803 -0.967307 -0.162388 
0.121793 -0.991281 -0.0502945 0.121793 -0.991281 -0.0502945 0.121793 -0.991281 -0.0502945 
0.112379 -0.914664 0.38828 0.112379 -0.914664 0.38828 0.112379 -0.914664 0.38828 
0.103589 -0.918837 0.380799 0.103589 -0.918837 0.380799 0.103589 -0.918837 0.380799 
-0.11499 -0.682292 -0.72198 -0.11499 -0.682292 -0.72198 -0.11499 -0.682292 -0.72198 
-0.156028 -0.92579 -0.344337 -0.156028 -0.92579 -0.344337 -0.156028 -0.92579 -0.344337 
-0.476211 -0.305737 0.824468 -0.476211 -0.305737 0.824468 -0.476211 -0.305737 0.824468 
-0.0236882 -0.570117 -0.821222 -0.0236882 -0.570117 -0.821222 -0.0236882 -0.570117 -0.821222 
0.118339 -0.731211 -0.671809 0.118339 -0.731211 -0.671809 0.118339 -0.731211 -0.671809 
0.303763 -0.701589 -0.644594 0.303763 -0.701589 -0.644594 0.303763 -0.701589 -0.644594 
-0.196003 -0.58912 0.783914 -0.196003 -0.58912 0.783914 -0.196003 -0.58912 0.783914 
-0.430049 -0.584129 -0.688368 -0.430049 -0.584129 -0.688368 -0.430049 -0.584129 -0.688368 
-0.479709 -0.602659 -0.637715 -0.479709 -0.602659 -0.637715 -0.479709 -0.602659 -0.637715 
-0.578873 -0.786274 -0.216053 -0.578873 -0.786274 -0.216053 -0.578873 -0.786274 -0.216053 
-0.693953 -0.7199 0.0131746 -0.693953 -0.7199 0.0131746 -0.693953 -0.7199 0.0131746 
-0.614583 -0.637563 0.464544 -0.614583 -0.637563 0.464544 -0.614583 -0.637563 0.464544 
-0.286778 -0.333088 0.898226 -0.286778 -0.333088 0.898226 -0.286778 -0.333088 0.898226 
-0.214831 -0.425966 0.878863 -0.214831 -0.425966 0.878863 -0.214831 -0.425966 0.878863 
0.215406 -0.65095 -0.727918 0.215406 -0.65095 -0.727918 0.215406 -0.65095 -0.727918 
-0.0515815 -0.365085 0.929544 -0.0515815 -0.365085 0.929544 -0.0515815 -0.365085 0.929544 
0.050498 -0.44792 0.892646 0.050498 -0.44792 0.892646 0.050498 -0.44792 0.892646 
0.452875 -0.823642 0.341347 0.452875 -0.823642 0.341347 0.452875 -0.823642 0.341347 
0.289661 -0.526806 0.799107 0.289661 -0.526806 0.799107 0.289661 -0.526806 0.799107 
0.442804 -0.784197 -0.434695 0.442804 -0.784197 -0.434695 0.442804 -0.784197 -0.434695 
0.484386 -0.857837 -0.171716 0.484386 -0.857837 -0.171716 0.484386 -0.857837 -0.171716 
0.481152 -0.86454 -0.145136 0.481152 -0.86454 -0.145136 0.481152 -0.86454 -0.145136 
0.460578 -0.827571 0.320926 0.460578 -0.827571 0.320926 0.460578 -0.827571 0.320926 
-0.603053 -0.369443 0.706993 -0.603053 -0.369443 0.706993 -0.603053 -0.369443 0.706993 
-0.280843 -0.436142 -0.854931 -0.280843 -0.436142 -0.854931 -0.280843 -0.436142 -0.854931 
-0.472687 -0.313216 0.823688 -0.472687 -0.313216 0.823688 -0.472687 -0.313216 0.823688 
-0.0250441 -0.495535 -0.868227 -0.0250441 -0.495535 -0.868227 -0.0250441 -0.495535 -0.868227 
-0.304146 -0.00189496 0.952624 -0.304146 -0.00189496 0.952624 -0.304146 -0.00189496 0.952624 
-0.191218 0.0392672 0.980762 -0.191218 0.0392672 0.980762 -0.191218 0.0392672 0.980762 
-0.0538449 -0.2357 0.970333 -0.0538449 -0.2357 0.970333 -0.0538449 -0.2357 0.970333 
0.283022 -0.582716 0.761801 0.283022 -0.582716 0.761801 0.283022 -0.582716 0.761801 
-0.926713 -0.332902 0.174298 -0.926713 -0.332902 0.174298 -0.926713 -0.332902 0.174298 
-0.782636 -0.326137 -0.530204 -0.782636 -0.326137 -0.530204 -0.782636 -0.326137 -0.530204 
-0.922919 -0.384595 0.0175215 -0.922919 -0.384595 0.0175215 -0.922919 -0.384595 0.0175215 
-0.759558 -0.272855 0.590442 -0.759558 -0.272855 0.590442 -0.759558 -0.272855 0.590442 
-0.347149 0.0305192 0.937313 -0.347149 0.0305192 0.937313 -0.347149 0.0305192 0.937313 
-0.0654653 -0.453457 -0.888871 -0.0654653 -0.453457 -0.888871 -0.0654653 -0.453457 -0.888871 
0.184427 -0.487187 -0.853601 0.184427 -0.487187 -0.853601 0.184427 -0.487187 -0.853601 
0.134702 -0.0480754 0.989719 0.134702 -0.0480754 0.989719 0.134702 -0.0480754 0.989719 
0.434604 -0.717362 -0.544529 0.434604 -0.717362 -0.544529 0.434604 -0.717362 -0.544529 
0.630416 -0.775408 0.0363033 0.630416 -0.775408 0.0363033 0.630416 -0.775408 0.0363033 
0.562988 -0.502124 0.656442 0.562988 -0.502124 0.656442 0.562988 -0.502124 0.656442 
0.604078 -0.743013 0.288135 0.604078 -0.743013 0.288135 0.604078 -0.743013 0.288135 
0.619935 -0.78173 0.0676708 0.619935 -0.78173 0.0676708 0.619935 -0.78173 0.0676708 
-0.664444 -0.131251 -0.735723 -0.664444 -0.131251 -0.735723 -0.664444 -0.131251 -0.735723 
-0.606526 -0.0103519 0.794996 -0.606526 -0.0103519 0.794996 -0.606526 -0.0103519 0.794996 
-0.306484 -0.188689 -0.932987 -0.306484 -0.188689 -0.932987 -0.306484 -0.188689 -0.932987 
-0.328747 -0.16982 -0.929024 -0.328747 -0.16982 -0.929024 -0.328747 -0.16982 -0.929024 
-0.341086 -0.0122394 0.939952 -0.341086 -0.0122394 0.939952 -0.341086 -0.0122394 0.939952 
0.194292 -0.46321 -0.864689 0.194292 -0.46321 -0.864689 0.194292 -0.46321 -0.864689 
0.134651 -0.0554313 0.989341 0.134651 -0.0554313 0.989341 0.134651 -0.0554313 0.989341 
0.338398 -0.656163 -0.67449 0.338398 -0.656163 -0.67449 0.338398 -0.656163 -0.67449 
0.16015 -0.0464687 0.985998 0.16015 -0.0464687 0.985998 0.16015 -0.0464687 0.985998 
0.552693 -0.374263 0.744619 0.552693 -0.374263 0.744619 0.552693 -0.374263 0.744619 
0.335603 -0.106178 0.936 0.335603 -0.106178 0.936 0.335603 -0.106178 0.936 
0.467115 -0.710126 -0.526806 0.467115 -0.710126 -0.526806 0.467115 -0.710126 -0.526806 
0.585268 -0.738015 -0.335849 0.585268 -0.738015 -0.335849 0.585268 -0.738015 -0.335849 
-0.23499 -0.211319 -0.948749 -0.23499 -0.211319 -0.948749 -0.23499 -0.211319 -0.948749 
-0.0789076 -0.273648 -0.958588 -0.0789076 -0.273648 -0.958588 -0.0789076 -0.273648 -0.958588 
-0.120189 -0.282311 -0.951764 -0.120189 -0.282311 -0.951764 -0.120189 -0.282311 -0.951764 
0.0593737 -0.337514 -0.939446 0.0593737 -0.337514 -0.939446 0.0593737 -0.337514 -0.939446 
-0.145583 0.280052 0.948882 -0.145583 0.280052 0.948882 -0.145583 0.280052 0.948882 
-0.103969 0.17164 0.979658 -0.103969 0.17164 0.979658 -0.103969 0.17164 0.979658 
-0.0764066 0.158242 0.98444 -0.0764066 0.158242 0.98444 -0.0764066 0.158242 0.98444 
0.292419 -0.564373 -0.771994 0.292419 -0.564373 -0.771994 0.292419 -0.564373 -0.771994 
0.46643 -0.684656 -0.56008 0.46643 -0.684656 -0.56008 0.46643 -0.684656 -0.56008 
0.762118 -0.541096 0.355515 0.762118 -0.541096 0.355515 0.762118 -0.541096 0.355515 
0.639118 -0.345398 0.687189 0.639118 -0.345398 0.687189 0.639118 -0.345398 0.687189 
-0.732373 0.0653153 -0.677764 -0.732373 0.0653153 -0.677764 -0.732373 0.0653153 -0.677764 
-0.714546 0.0513388 -0.697702 -0.714546 0.0513388 -0.697702 -0.714546 0.0513388 -0.697702 
-0.971196 0.0697787 -0.227834 -0.971196 0.0697787 -0.227834 -0.971196 0.0697787 -0.227834 
-0.388292 0.021105 -0.921295 -0.388292 0.021105 -0.921295 -0.388292 0.021105 -0.921295 
-0.514849 0.14835 -0.844348 -0.514849 0.14835 -0.844348 -0.514849 0.14835 -0.844348 
-0.257656 0.237864 0.936501 -0.257656 0.237864 0.936501 -0.257656 0.237864 0.936501 
0.190534 -0.450676 -0.872117 0.190534 -0.450676 -0.872117 0.190534 -0.450676 -0.872117 
0.20033 -0.421214 -0.88456 0.20033 -0.421214 -0.88456 0.20033 -0.421214 -0.88456 
0.32002 -0.559133 -0.764825 0.32002 -0.559133 -0.764825 0.32002 -0.559133 -0.764825 
0.682032 -0.694516 -0.229086 0.682032 -0.694516 -0.229086 0.682032 -0.694516 -0.229086 
0.73919 -0.524817 0.422096 0.73919 -0.524817 0.422096 0.73919 -0.524817 0.422096 
-0.90231 0.411556 0.128292 -0.90231 0.411556 0.128292 -0.90231 0.411556 0.128292 
-0.568107 0.355333 0.742289 -0.568107 0.355333 0.742289 -0.568107 0.355333 0.742289 
-0.687467 0.313563 0.655032 -0.687467 0.313563 0.655032 -0.687467 0.313563 0.655032 
-0.254502 0.214463 0.942992 -0.254502 0.214463 0.942992 -0.254502 0.214463 0.942992 
-0.0790108 -0.269188 -0.959841 -0.0790108 -0.269188 -0.959841 -0.0790108 -0.269188 -0.959841 
0.107939 0.333735 0.936467 0.107939 0.333735 0.936467 0.107939 0.333735 0.936467 
0.153892 0.280409 0.947464 0.153892 0.280409 0.947464 0.153892 0.280409 0.947464 
0.334336 0.136848 0.932466 0.334336 0.136848 0.932466 0.334336 0.136848 0.932466 
0.441641 -0.688857 -0.574829 0.441641 -0.688857 -0.574829 0.441641 -0.688857 -0.574829 
-0.79978 0.379832 -0.464843 -0.79978 0.379832 -0.464843 -0.79978 0.379832 -0.464843 
-0.900252 0.427548 0.0821508 -0.900252 0.427548 0.0821508 -0.900252 0.427548 0.0821508 
-0.339749 0.00718405 -0.940489 -0.339749 0.00718405 -0.940489 -0.339749 0.00718405 -0.940489 
0.0162402 -0.177337 -0.984016 0.0162402 -0.177337 -0.984016 0.0162402 -0.177337 -0.984016 
0.0618082 -0.199406 -0.977966 0.0618082 -0.199406 -0.977966 0.0618082 -0.199406 -0.977966 
-0.124484 0.37252 0.919637 -0.124484 0.37252 0.919637 -0.124484 0.37252 0.919637 
-0.000257645 0.428007 0.903776 -0.000257645 0.428007 0.903776 -0.000257645 0.428007 0.903776 
0.10731 0.333947 0.936464 0.10731 0.333947 0.936464 0.10731 0.333947 0.936464 
0.675478 -0.707571 -0.207541 0.675478 -0.707571 -0.207541 0.675478 -0.707571 -0.207541 
0.899453 -0.43576 -0.0331283 0.899453 -0.43576 -0.0331283 0.899453 -0.43576 -0.0331283 
0.80044 -0.387791 0.457071 0.80044 -0.387791 0.457071 0.80044 -0.387791 0.457071 
-0.189377 0.410953 0.89177 -0.189377 0.410953 0.89177 -0.189377 0.410953 0.89177 
-0.0579459 0.471035 0.880209 -0.0579459 0.471035 0.880209 -0.0579459 0.471035 0.880209 
-0.152404 0.539966 0.827774 -0.152404 0.539966 0.827774 -0.152404 0.539966 0.827774 
0.113947 -0.173043 -0.978301 0.113947 -0.173043 -0.978301 0.113947 -0.173043 -0.978301 
-0.000232604 0.57808 0.81598 -0.000232604 0.57808 0.81598 -0.000232604 0.57808 0.81598 
0.101215 -0.160339 -0.981859 0.101215 -0.160339 -0.981859 0.101215 -0.160339 -0.981859 
0.494005 -0.590232 -0.638424 0.494005 -0.590232 -0.638424 0.494005 -0.590232 -0.638424 
0.558256 -0.0938521 0.824343 0.558256 -0.0938521 0.824343 0.558256 -0.0938521 0.824343 
0.549098 -0.0901499 0.830882 0.549098 -0.0901499 0.830882 0.549098 -0.0901499 0.830882 
0.78416 -0.585179 -0.20654 0.78416 -0.585179 -0.20654 0.78416 -0.585179 -0.20654 
0.574366 -0.710354 0.406818 0.574366 -0.710354 0.406818 0.574366 -0.710354 0.406818 
-0.768264 0.626537 0.131235 -0.768264 0.626537 0.131235 -0.768264 0.626537 0.131235 
-0.506792 0.702442 0.499738 -0.506792 0.702442 0.499738 -0.506792 0.702442 0.499738 
-0.401182 0.55606 0.727908 -0.401182 0.55606 0.727908 -0.401182 0.55606 0.727908 
-0.222028 0.523082 0.822854 -0.222028 0.523082 0.822854 -0.222028 0.523082 0.822854 
-0.262925 0.0362272 -0.964136 -0.262925 0.0362272 -0.964136 -0.262925 0.0362272 -0.964136 
-0.228025 0.0270888 -0.973278 -0.228025 0.0270888 -0.973278 -0.228025 0.0270888 -0.973278 
-0.106356 0.0702125 -0.991846 -0.106356 0.0702125 -0.991846 -0.106356 0.0702125 -0.991846 
-0.102903 0.575011 0.811649 -0.102903 0.575011 0.811649 -0.102903 0.575011 0.811649 
0.0474359 0.101363 -0.993718 0.0474359 0.101363 -0.993718 0.0474359 0.101363 -0.993718 
-0.0402572 0.536359 0.843029 -0.0402572 0.536359 0.843029 -0.0402572 0.536359 0.843029 
-0.101225 0.534037 0.83938 -0.101225 0.534037 0.83938 -0.101225 0.534037 0.83938 
0.0669021 -0.226193 -0.971782 0.0669021 -0.226193 -0.971782 0.0669021 -0.226193 -0.971782 
0.0865231 0.398921 0.912894 0.0865231 0.398921 0.912894 0.0865231 0.398921 0.912894 
0.143477 -0.425481 -0.893521 0.143477 -0.425481 -0.893521 0.143477 -0.425481 -0.893521 
0.304944 -0.525046 -0.794566 0.304944 -0.525046 -0.794566 0.304944 -0.525046 -0.794566 
0.33127 0.137851 0.933412 0.33127 0.137851 0.933412 0.33127 0.137851 0.933412 
0.656482 -0.557913 -0.507705 0.656482 -0.557913 -0.507705 0.656482 -0.557913 -0.507705 
-0.556809 0.454091 -0.695532 -0.556809 0.454091 -0.695532 -0.556809 0.454091 -0.695532 
-0.392803 0.834891 0.385567 -0.392803 0.834891 0.385567 -0.392803 0.834891 0.385567 
-0.559627 0.253669 -0.788968 -0.559627 0.253669 -0.788968 -0.559627 0.253669 -0.788968 
-0.729567 0.465107 -0.501406 -0.729567 0.465107 -0.501406 -0.729567 0.465107 -0.501406 
-0.473703 0.365708 -0.801164 -0.473703 0.365708 -0.801164 -0.473703 0.365708 -0.801164 
-0.0871324 0.661752 0.744642 -0.0871324 0.661752 0.744642 -0.0871324 0.661752 0.744642 
-0.373398 0.305887 -0.875789 -0.373398 0.305887 -0.875789 -0.373398 0.305887 -0.875789 
-0.11818 0.659623 0.742247 -0.11818 0.659623 0.742247 -0.11818 0.659623 0.742247 
-0.0059104 0.787024 0.616894 -0.0059104 0.787024 0.616894 -0.0059104 0.787024 0.616894 
-0.0642279 0.13363 -0.988948 -0.0642279 0.13363 -0.988948 -0.0642279 0.13363 -0.988948 
-0.0851504 0.68773 0.720955 -0.0851504 0.68773 0.720955 -0.0851504 0.68773 0.720955 
0.00319334 0.16731 -0.985899 0.00319334 0.16731 -0.985899 0.00319334 0.16731 -0.985899 
-0.121599 0.710351 0.693264 -0.121599 0.710351 0.693264 -0.121599 0.710351 0.693264 
0.311048 -0.531219 -0.788071 0.311048 -0.531219 -0.788071 0.311048 -0.531219 -0.788071 
0.669965 -0.636702 -0.381782 0.669965 -0.636702 -0.381782 0.669965 -0.636702 -0.381782 
-0.649608 0.677084 -0.345786 -0.649608 0.677084 -0.345786 -0.649608 0.677084 -0.345786 
-0.218417 0.950411 0.22139 -0.218417 0.950411 0.22139 -0.218417 0.950411 0.22139 
-0.387389 0.83586 0.388933 -0.387389 0.83586 0.388933 -0.387389 0.83586 0.388933 
-0.428872 0.758644 -0.490437 -0.428872 0.758644 -0.490437 -0.428872 0.758644 -0.490437 
-0.00683785 0.910523 0.413402 -0.00683785 0.910523 0.413402 -0.00683785 0.910523 0.413402 
-0.0457959 0.707586 -0.705142 -0.0457959 0.707586 -0.705142 -0.0457959 0.707586 -0.705142 
0.107621 0.988569 0.105592 0.107621 0.988569 0.105592 0.107621 0.988569 0.105592 
-0.148119 0.778356 0.6101 -0.148119 0.778356 0.6101 -0.148119 0.778356 0.6101 
0.00273445 0.535988 -0.844221 0.00273445 0.535988 -0.844221 0.00273445 0.535988 -0.844221 
-0.112021 0.876004 0.469115 -0.112021 0.876004 0.469115 -0.112021 0.876004 0.469115 
-0.312183 0.301457 -0.900925 -0.312183 0.301457 -0.900925 -0.312183 0.301457 -0.900925 
0.254118 0.306899 -0.91719 0.254118 0.306899 -0.91719 0.254118 0.306899 -0.91719 
-0.22785 0.0729067 -0.970963 -0.22785 0.0729067 -0.970963 -0.22785 0.0729067 -0.970963 
0.145229 -0.428126 -0.891973 0.145229 -0.428126 -0.891973 0.145229 -0.428126 -0.891973 
0.317717 0.17681 0.931555 0.317717 0.17681 0.931555 0.317717 0.17681 0.931555 
0.551197 0.0230324 0.834058 0.551197 0.0230324 0.834058 0.551197 0.0230324 0.834058 
0.815795 0.0245543 0.57782 0.815795 0.0245543 0.57782 0.815795 0.0245543 0.57782 
-0.193105 0.840269 -0.506615 -0.193105 0.840269 -0.506615 -0.193105 0.840269 -0.506615 
-0.490007 0.866788 0.0925841 -0.490007 0.866788 0.0925841 -0.490007 0.866788 0.0925841 
-0.0654561 0.837996 -0.541736 -0.0654561 0.837996 -0.541736 -0.0654561 0.837996 -0.541736 
-0.0281221 0.747427 -0.663749 -0.0281221 0.747427 -0.663749 -0.0281221 0.747427 -0.663749 
-0.0775786 0.993193 0.0868846 -0.0775786 0.993193 0.0868846 -0.0775786 0.993193 0.0868846 
-0.129146 0.892169 0.432846 -0.129146 0.892169 0.432846 -0.129146 0.892169 0.432846 
-0.228238 0.869556 -0.437927 -0.228238 0.869556 -0.437927 -0.228238 0.869556 -0.437927 
-0.29981 0.344746 -0.88953 -0.29981 0.344746 -0.88953 -0.29981 0.344746 -0.88953 
-0.399553 0.736262 0.546146 -0.399553 0.736262 0.546146 -0.399553 0.736262 0.546146 
-0.233017 0.613924 0.754189 -0.233017 0.613924 0.754189 -0.233017 0.613924 0.754189 
-0.228369 0.0279505 -0.973173 -0.228369 0.0279505 -0.973173 -0.228369 0.0279505 -0.973173 
-0.078562 -0.226001 -0.970954 -0.078562 -0.226001 -0.970954 -0.078562 -0.226001 -0.970954 
-0.0662957 -0.269952 -0.960589 -0.0662957 -0.269952 -0.960589 -0.0662957 -0.269952 -0.960589 
0.275476 0.234414 0.932289 0.275476 0.234414 0.932289 0.275476 0.234414 0.932289 
0.432378 -0.419181 -0.798334 0.432378 -0.419181 -0.798334 0.432378 -0.419181 -0.798334 
0.648968 -0.124579 0.750547 0.648968 -0.124579 0.750547 0.648968 -0.124579 0.750547 
0.474963 0.214589 0.853441 0.474963 0.214589 0.853441 0.474963 0.214589 0.853441 
0.902352 -0.39582 0.170551 0.902352 -0.39582 0.170551 0.902352 -0.39582 0.170551 
-0.5804 0.811234 0.0709668 -0.5804 0.811234 0.0709668 -0.5804 0.811234 0.0709668 
-0.399602 0.757579 0.516132 -0.399602 0.757579 0.516132 -0.399602 0.757579 0.516132 
-0.581831 0.813235 -0.0110489 -0.581831 0.813235 -0.0110489 -0.581831 0.813235 -0.0110489 
-0.613417 0.705357 -0.355233 -0.613417 0.705357 -0.355233 -0.613417 0.705357 -0.355233 
-0.671283 0.564288 -0.480581 -0.671283 0.564288 -0.480581 -0.671283 0.564288 -0.480581 
-0.528388 0.0149457 -0.848872 -0.528388 0.0149457 -0.848872 -0.528388 0.0149457 -0.848872 
-0.102984 0.566189 0.817816 -0.102984 0.566189 0.817816 -0.102984 0.566189 0.817816 
-0.265757 -0.116992 -0.956915 -0.265757 -0.116992 -0.956915 -0.265757 -0.116992 -0.956915 
0.442942 -0.489919 -0.750854 0.442942 -0.489919 -0.750854 0.442942 -0.489919 -0.750854 
0.409389 -0.0361998 0.911641 0.409389 -0.0361998 0.911641 0.409389 -0.0361998 0.911641 
-0.257655 0.511027 0.82004 -0.257655 0.511027 0.82004 -0.257655 0.511027 0.82004 
0.035782 0.38081 0.923961 0.035782 0.38081 0.923961 0.035782 0.38081 0.923961 
-0.113267 0.484095 0.867654 -0.113267 0.484095 0.867654 -0.113267 0.484095 0.867654 
0.0855941 0.361137 0.928576 0.0855941 0.361137 0.928576 0.0855941 0.361137 0.928576 
0.834689 -0.366327 -0.411216 0.834689 -0.366327 -0.411216 0.834689 -0.366327 -0.411216 
0.902249 -0.395978 0.170731 0.902249 -0.395978 0.170731 0.902249 -0.395978 0.170731 
-0.309263 0.550867 0.775178 -0.309263 0.550867 0.775178 -0.309263 0.550867 0.775178 
0.219863 -0.361519 -0.906071 0.219863 -0.361519 -0.906071 0.219863 -0.361519 -0.906071 
0.261809 -0.367541 -0.892396 0.261809 -0.367541 -0.892396 0.261809 -0.367541 -0.892396 
0.692478 -0.45914 -0.556476 0.692478 -0.45914 -0.556476 0.692478 -0.45914 -0.556476 
0.799617 -0.530177 0.282001 0.799617 -0.530177 0.282001 0.799617 -0.530177 0.282001 
0.668904 -0.0855692 0.738407 0.668904 -0.0855692 0.738407 0.668904 -0.0855692 0.738407 
-0.503153 -0.021382 -0.863933 -0.503153 -0.021382 -0.863933 -0.503153 -0.021382 -0.863933 
-0.725171 0.452327 -0.51916 -0.725171 0.452327 -0.51916 -0.725171 0.452327 -0.51916 