# vtk DataFile Version 4.2
3D Slicer output. SPACE=LPS
ASCII
DATASET POLYDATA
POINTS 2028 double
7.1580719948 -5.8225488663 2.8107414246 7.1580719948 -5.8117256165 0.71732902527 9.1969490051 -5.7330331802 1.7640352249 
4.0997567177 -5.2686886787 0.71732902527 2.0608797073 -3.8790092468 -0.32937812805 5.1191945076 -5.2518177032 -0.32937812805 
5.1191945076 -5.2518177032 -0.32937812805 7.1580719948 -5.8117256165 0.71732902527 4.0997567177 -5.2686886787 0.71732902527 
7.1580719948 -5.8117256165 0.71732902527 7.1580719948 -5.8225488663 2.8107414246 4.0997567177 -5.2686886787 0.71732902527 
4.0997567177 -5.2686886787 0.71732902527 7.1580719948 -5.8225488663 2.8107414246 4.522963047 -5.0718035698 1.7640352249 
4.522963047 -5.0718035698 1.7640352249 7.1580719948 -5.8225488663 2.8107414246 8.1775093079 -4.0429477692 4.5293827057 
9.1969490051 -4.0633616447 -0.32937812805 9.1969490051 -5.7330331802 1.7640352249 7.1580719948 -5.8117256165 0.71732902527 
9.1969490051 -5.7330331802 1.7640352249 9.1969490051 -5.422911644 3.8574476242 7.1580719948 -5.8225488663 2.8107414246 
8.1775093079 -4.0429477692 4.5293827057 7.1580719948 -5.8225488663 2.8107414246 9.1969490051 -5.422911644 3.8574476242 
11.19443512 -5.0718035698 2.8107414246 11.235824585 -5.0217471123 3.8574476242 9.1969490051 -5.7330331802 1.7640352249 
9.1969490051 -5.7330331802 1.7640352249 11.235824585 -5.0217471123 3.8574476242 9.1969490051 -5.422911644 3.8574476242 
4.0997567177 -5.2686886787 0.71732902527 2.4780812263 -4.0429477692 0.71732902527 2.0608797073 -3.8790092468 -0.32937812805 
4.0997567177 -5.2686886787 0.71732902527 4.522963047 -5.0718035698 1.7640352249 2.4780812263 -4.0429477692 0.71732902527 
2.0608797073 -3.8790092468 -0.32937812805 4.0997567177 -4.0429477692 -1.2532930374 5.1191945076 -5.2518177032 -0.32937812805 
7.1580719948 -5.8117256165 0.71732902527 5.1191945076 -5.2518177032 -0.32937812805 6.1386332512 -4.0429477692 -1.2131500244 
6.1386332512 -4.0429477692 -1.2131500244 5.1191945076 -5.2518177032 -0.32937812805 4.0997567177 -4.0429477692 -1.2532930374 
7.1580719948 -5.8117256165 0.71732902527 6.1386332512 -4.0429477692 -1.2131500244 9.1969490051 -4.0633616447 -0.32937812805 
9.1969490051 -5.422911644 3.8574476242 11.235824585 -4.0429477692 5.1238136292 8.1775093079 -4.0429477692 4.5293827057 
11.235824585 -4.0429477692 5.1238136292 9.1969490051 -5.422911644 3.8574476242 11.235824585 -5.0217471123 3.8574476242 
9.1969490051 -4.0633616447 -0.32937812805 12.255262375 -3.8808755875 1.7640352249 9.1969490051 -5.7330331802 1.7640352249 
12.255262375 -3.8808755875 1.7640352249 11.19443512 -5.0718035698 2.8107414246 9.1969490051 -5.7330331802 1.7640352249 
11.235824585 -5.0217471123 3.8574476242 12.255262375 -3.8874387741 4.9041538239 11.235824585 -4.0429477692 5.1238136292 
15.313577652 -2.1450242996 3.8574476242 11.235824585 -5.0217471123 3.8574476242 11.19443512 -5.0718035698 2.8107414246 
11.235824585 -5.0217471123 3.8574476242 15.313577652 -2.1450242996 3.8574476242 12.255262375 -3.8874387741 4.9041538239 
2.0608797073 -3.8790092468 -0.32937812805 2.0608797073 -1.9852371216 -1.6835222244 4.0997567177 -4.0429477692 -1.2532930374 
2.0608797073 -1.9852371216 -1.6835222244 4.0997567177 -1.9852371216 -2.1852684021 4.0997567177 -4.0429477692 -1.2532930374 
4.0997567177 -1.9852371216 -2.1852684021 6.1386332512 -3.0140924454 -1.7724819183 4.0997567177 -4.0429477692 -1.2532930374 
2.0608797073 -1.9852371216 1.6805467606 2.4780812263 -4.0429477692 0.71732902527 4.522963047 -5.0718035698 1.7640352249 
4.522963047 -5.0718035698 1.7640352249 6.1386332512 -3.0140924454 3.9223098755 2.0608797073 -1.9852371216 1.6805467606 
4.0997567177 -4.0429477692 -1.2532930374 6.1386332512 -3.0140924454 -1.7724819183 6.1386332512 -4.0429477692 -1.2131500244 
6.1386332512 -4.0429477692 -1.2131500244 6.1386332512 -3.0140924454 -1.7724819183 9.1969490051 -1.9852371216 -1.63322258 
6.1386332512 -3.0140924454 3.9223098755 4.522963047 -5.0718035698 1.7640352249 8.1775093079 -4.0429477692 4.5293827057 
9.1969490051 -1.9852371216 -1.63322258 9.1969490051 -4.0633616447 -0.32937812805 6.1386332512 -4.0429477692 -1.2131500244 
8.1775093079 -4.0429477692 4.5293827057 11.235824585 -4.0429477692 5.1238136292 10.216386795 -1.9852371216 5.6195831299 
9.1969490051 -4.0633616447 -0.32937812805 9.1969490051 -1.9852371216 -1.63322258 12.255262375 -3.8808755875 1.7640352249 
15.313577652 -2.1450242996 3.8574476242 16.188310623 -0.95638179779 4.9041538239 12.255262375 -3.8874387741 4.9041538239 
15.313577652 -2.1450242996 3.8574476242 11.19443512 -5.0718035698 2.8107414246 12.255262375 -3.8808755875 1.7640352249 
2.0608797073 -3.8790092468 -0.32937812805 0.23653316498 0.072474479675 -0.32937812805 2.0608797073 -1.9852371216 -1.6835222244 
0.23653316498 0.072474479675 -0.32937812805 2.0608797073 -3.8790092468 -0.32937812805 0.83806324005 -0.95638179779 0.71732902527 
2.0608797073 -3.8790092468 -0.32937812805 2.4780812263 -4.0429477692 0.71732902527 0.83806324005 -0.95638179779 0.71732902527 
2.4780812263 -4.0429477692 0.71732902527 2.0608797073 -1.9852371216 1.6805467606 0.83806324005 -0.95638179779 0.71732902527 
2.0608797073 -0.95638179779 1.8945798874 2.0608797073 -1.9852371216 1.6805467606 6.1386332512 -3.0140924454 3.9223098755 
6.1386332512 -3.0140924454 3.9223098755 8.1775093079 -4.0429477692 4.5293827057 10.216386795 -1.9852371216 5.6195831299 
12.255262375 -3.8808755875 1.7640352249 9.1969490051 -1.9852371216 -1.63322258 13.274702072 -0.95686244965 -0.32937812805 
11.235824585 -4.0429477692 5.1238136292 12.255262375 -1.9852371216 5.773481369 10.216386795 -1.9852371216 5.6195831299 
12.255262375 -3.8874387741 4.9041538239 12.255262375 -1.9852371216 5.773481369 11.235824585 -4.0429477692 5.1238136292 
15.313577652 0.072474479675 5.9394397736 12.255262375 -1.9852371216 5.773481369 12.255262375 -3.8874387741 4.9041538239 
16.188310623 -0.95638179779 4.9041538239 15.313577652 0.072474479675 5.9394397736 12.255262375 -3.8874387741 4.9041538239 
15.313577652 -2.1450242996 3.8574476242 12.255262375 -3.8808755875 1.7640352249 15.313577652 -1.3156251907 1.7640352249 
2.0608797073 -1.9852371216 -1.6835222244 0.23653316498 0.072474479675 -0.32937812805 2.0608797073 0.072474479675 -2.0058164597 
0.83806324005 -0.95638179779 0.71732902527 2.0608797073 -1.9852371216 1.6805467606 2.0608797073 -0.95638179779 1.8945798874 
5.1191945076 0.072474479675 3.5494699478 2.0608797073 -0.95638179779 1.8945798874 6.1386332512 -3.0140924454 3.9223098755 
6.1386332512 -3.0140924454 -1.7724819183 4.0997567177 -1.9852371216 -2.1852684021 8.1775093079 1.1013298035 -3.0933952332 
13.274702072 -0.95686244965 -0.32937812805 15.313577652 -1.3156251907 1.7640352249 12.255262375 -3.8808755875 1.7640352249 
18.291654587 1.1013298035 2.8107414246 15.313577652 -2.1450242996 3.8574476242 15.313577652 -1.3156251907 1.7640352249 
0.83806324005 -0.95638179779 0.71732902527 0.78588962555 1.1013298035 0.71732902527 0.23653316498 0.072474479675 -0.32937812805 
0.78588962555 1.1013298035 0.71732902527 0.83806324005 -0.95638179779 0.71732902527 2.0608797073 -0.95638179779 1.8945798874 
6.1386332512 -3.0140924454 3.9223098755 9.1969490051 0.072474479675 5.2586688995 5.1191945076 0.072474479675 3.5494699478 
6.1386332512 -3.0140924454 3.9223098755 10.216386795 -1.9852371216 5.6195831299 9.1969490051 0.072474479675 5.2586688995 
6.1386332512 -3.0140924454 -1.7724819183 8.1775093079 1.1013298035 -3.0933952332 12.255262375 4.1878967285 -3.290148735 
9.1969490051 -1.9852371216 -1.63322258 6.1386332512 -3.0140924454 -1.7724819183 12.255262375 4.1878967285 -3.290148735 
12.255262375 -1.9852371216 5.773481369 14.294139862 1.1013298035 6.0785140991 10.216386795 -1.9852371216 5.6195831299 
14.294139862 1.1013298035 6.0785140991 9.1969490051 0.072474479675 5.2586688995 10.216386795 -1.9852371216 5.6195831299 
12.255262375 -1.9852371216 5.773481369 15.313577652 0.072474479675 5.9394397736 14.294139862 1.1013298035 6.0785140991 
18.291654587 1.1013298035 2.8107414246 18.371892929 1.0852384567 3.8574476242 15.313577652 -2.1450242996 3.8574476242 
18.371892929 1.0852384567 3.8574476242 16.188310623 -0.95638179779 4.9041538239 15.313577652 -2.1450242996 3.8574476242 
2.0608797073 2.1301851273 -1.863571167 2.0608797073 0.072474479675 -2.0058164597 0.23653316498 0.072474479675 -0.32937812805 
2.0608797073 2.1301851273 1.7122488022 0.78588962555 1.1013298035 0.71732902527 2.0608797073 -0.95638179779 1.8945798874 
4.0997567177 -1.9852371216 -2.1852684021 2.0608797073 -1.9852371216 -1.6835222244 2.0608797073 0.072474479675 -2.0058164597 
5.1191945076 0.072474479675 3.5494699478 2.0608797073 2.1301851273 1.7122488022 2.0608797073 -0.95638179779 1.8945798874 
8.1775093079 1.1013298035 -3.0933952332 4.0997567177 -1.9852371216 -2.1852684021 8.1775093079 5.2167520523 -3.9421010017 
6.1386332512 3.1590414047 3.3358011246 5.1191945076 0.072474479675 3.5494699478 9.1969490051 0.072474479675 5.2586688995 
14.294139862 1.1013298035 6.0785140991 13.274702072 3.1590414047 5.5492095947 9.1969490051 0.072474479675 5.2586688995 
13.274702072 -0.95686244965 -0.32937812805 9.1969490051 -1.9852371216 -1.63322258 13.274702072 2.1301851273 -2.1751365662 
16.188310623 -0.95638179779 4.9041538239 18.408813477 2.1301851273 4.9041538239 15.313577652 0.072474479675 5.9394397736 
18.371892929 1.0852384567 3.8574476242 18.408813477 2.1301851273 4.9041538239 16.188310623 -0.95638179779 4.9041538239 
2.0608797073 2.1301851273 -1.863571167 0.23653316498 0.072474479675 -0.32937812805 1.3612418175 3.1590414047 -0.32937812805 
6.1386332512 3.1590414047 3.3358011246 2.0608797073 2.1301851273 1.7122488022 5.1191945076 0.072474479675 3.5494699478 
9.1969490051 -1.9852371216 -1.63322258 12.255262375 4.1878967285 -3.290148735 13.274702072 2.1301851273 -2.1751365662 
17.352455139 2.9140253067 -0.32937812805 13.274702072 -0.95686244965 -0.32937812805 13.274702072 2.1301851273 -2.1751365662 
[...]
CELL_DATA 676
FIELD FieldData 1
GroupIds 1 676 float
0 0 0 0 0 0 0 0 0 
0 0 0 0 0 0 0 0 0 
0 0 0 0 0 0 0 0 0 
0 0 0 0 0 0 0 0 0 
0 0 0 0 0 0 0 0 0 
0 0 0 0 0 0 0 0 0 
0 0 0 0 0 0 0 0 0 
0 0 0 0 0 0 0 0 0 
0 0 0 0 0 0 0 0 0 
0 0 0 0 0 0 0 0 0 
0 0 0 0 0 0 0 0 0 
0 0 0 0 0 0 0 0 0 
0 0 0 0 0 0 0 0 0 
0 0 0 0 0 0 0 0 0 
0 0 0 0 0 0 0 0 0 
0 0 0 0 0 0 0 0 0 
0 0 0 0 0 0 0 0 0 
0 0 0 0 0 0 0 0 0 
0 0 0 0 0 0 0 0 0 
0 0 0 0 0 0 0 0 0 
0 0 0 0 0 0 0 0 0 
0 0 0 0 0 0 0 0 0 
0 0 0 0 0 0 0 0 0 
0 0 0 0 0 0 0 0 0 
0 0 0 0 0 0 0 0 0 
0 0 0 0 0 0 0 0 0 
0 0 0 0 0 0 0 0 0 
0 0 0 0 0 0 0 0 0 
0 0 0 0 0 0 0 0 0 
0 0 0 0 0 0 0 0 0 
0 0 0 0 0 0 0 0 0 
0 0 0 0 0 0 0 0 0 
0 0 0 0 0 0 0 0 0 
0 0 0 0 0 0 0 0 0 
0 0 0 0 0 0 0 0 0 
0 0 0 0 0 0 0 0 0 
0 0 0 0 0 0 0 0 0 
0 0 0 0 0 0 0 0 0 
0 0 0 0 0 0 0 0 0 
0 0 0 0 0 0 0 0 0 
0 0 0 0 0 0 0 0 0 
0 0 0 0 0 0 0 0 0 
0 0 0 0 0 0 0 0 0 
0 0 0 0 0 0 0 0 0 
0 0 0 0 0 0 0 0 0 
0 0 0 0 0 0 0 0 0 
0 0 0 0 0 0 0 0 0 
0 0 0 0 0 0 0 0 0 
0 0 0 0 0 0 0 0 0 
0 0 0 0 0 0 0 0 0 
0 0 0 0 0 0 0 0 0 
0 0 0 0 0 0 0 0 0 
0 0 0 0 0 0 0 0 0 
0 0 0 0 0 0 0 0 0 
0 0 0 0 0 0 0 0 0 
0 0 0 0 0 0 0 0 0 
0 0 0 0 0 0 0 0 0 
0 0 0 0 0 0 0 0 0 
0 0 0 0 0 0 0 0 0 
0 0 0 0 0 0 0 0 0 
0 0 0 0 0 0 0 0 0 
0 0 0 0 0 0 0 0 0 
0 0 0 0 0 0 0 0 0 
0 0 0 0 0 0 0 0 0 
0 0 0 0 0 0 0 0 0 
0 0 0 0 0 0 0 0 0 
0 0 0 0 0 0 0 0 0 
0 0 0 0 0 0 0 0 0 
0 0 0 0 0 0 0 0 0 
0 0 0 0 0 0 0 0 0 
0 0 0 0 0 0 0 0 0 
0 0 0 0 0 0 0 0 0 
0 0 0 0 0 0 0 0 0 
0 0 0 0 0 0 0 0 0 
0 0 0 0 0 0 0 0 0 
0 
POINT_DATA 2028
NORMALS Normals float
0.0412146 -0.999137 -0.00516568 0.0412146 -0.999137 -0.00516568 0.0412146 -0.999137 -0.00516568 
-0.378429 -0.843057 -0.382159 -0.378429 -0.843057 -0.382159 -0.378429 -0.843057 -0.382159 
-0.171874 -0.967973 -0.182998 -0.171874 -0.967973 -0.182998 -0.171874 -0.967973 -0.182998 
-0.174824 -0.984587 -0.00509046 -0.174824 -0.984587 -0.00509046 -0.174824 -0.984587 -0.00509046 
-0.373731 -0.87234 0.315195 -0.373731 -0.87234 0.315195 -0.373731 -0.87234 0.315195 
-0.438593 -0.481545 0.758783 -0.438593 -0.481545 0.758783 -0.438593 -0.481545 0.758783 
0.330589 -0.737833 -0.588483 0.330589 -0.737833 -0.588483 0.330589 -0.737833 -0.588483 
0.117835 -0.982313 0.145521 0.117835 -0.982313 0.145521 0.117835 -0.982313 0.145521 
-0.279525 -0.57932 0.765673 -0.279525 -0.57932 0.765673 -0.279525 -0.57932 0.765673 
0.298057 -0.953948 0.0338346 0.298057 -0.953948 0.0338346 0.298057 -0.953948 0.0338346 
0.191049 -0.970984 0.143843 0.191049 -0.970984 0.143843 0.191049 -0.970984 0.143843 
-0.599007 -0.792496 0.114632 -0.599007 -0.792496 0.114632 -0.599007 -0.792496 0.114632 
-0.561035 -0.742259 0.366458 -0.561035 -0.742259 0.366458 -0.561035 -0.742259 0.366458 
-0.328896 -0.732708 -0.59579 -0.328896 -0.732708 -0.59579 -0.328896 -0.732708 -0.59579 
0.181413 -0.675488 -0.714707 0.181413 -0.675488 -0.714707 0.181413 -0.675488 -0.714707 
0.0157666 -0.598734 -0.800793 0.0157666 -0.598734 -0.800793 0.0157666 -0.598734 -0.800793 
0.202919 -0.666245 -0.717595 0.202919 -0.666245 -0.717595 0.202919 -0.666245 -0.717595 
-0.162235 -0.52628 0.834691 -0.162235 -0.52628 0.834691 -0.162235 -0.52628 0.834691 
0.153824 -0.781795 0.604264 0.153824 -0.781795 0.604264 0.153824 -0.781795 0.604264 
0.427923 -0.706593 -0.563567 0.427923 -0.706593 -0.563567 0.427923 -0.706593 -0.563567 
0.472711 -0.780548 -0.409009 0.472711 -0.780548 -0.409009 0.472711 -0.780548 -0.409009 
0.244784 -0.767141 0.592938 0.244784 -0.767141 0.592938 0.244784 -0.767141 0.592938 
0.576381 -0.817019 0.0162806 0.576381 -0.817019 0.0162806 0.576381 -0.817019 0.0162806 
0.548379 -0.777327 0.308291 0.548379 -0.777327 0.308291 0.548379 -0.777327 0.308291 
-0.383601 -0.537154 -0.75121 -0.383601 -0.537154 -0.75121 -0.383601 -0.537154 -0.75121 
-0.21874 -0.402583 -0.888864 -0.21874 -0.402583 -0.888864 -0.21874 -0.402583 -0.888864 
-0.0237624 -0.412458 -0.910667 -0.0237624 -0.412458 -0.910667 -0.0237624 -0.412458 -0.910667 
-0.574569 -0.439647 0.690348 -0.574569 -0.439647 0.690348 -0.574569 -0.439647 0.690348 
-0.517177 -0.39196 0.760852 -0.517177 -0.39196 0.760852 -0.517177 -0.39196 0.760852 
0.0172953 -0.477555 -0.878432 0.0172953 -0.477555 -0.878432 0.0172953 -0.477555 -0.878432 
0.196761 -0.468289 -0.861388 0.196761 -0.468289 -0.861388 0.196761 -0.468289 -0.861388 
-0.455419 -0.448842 0.768852 -0.455419 -0.448842 0.768852 -0.455419 -0.448842 0.768852 
0.234508 -0.516648 -0.823456 0.234508 -0.516648 -0.823456 0.234508 -0.516648 -0.823456 
-0.181129 -0.31426 0.931898 -0.181129 -0.31426 0.931898 -0.181129 -0.31426 0.931898 
0.521714 -0.453407 -0.72266 0.521714 -0.453407 -0.72266 0.521714 -0.453407 -0.72266 
0.552658 -0.741585 0.38029 0.552658 -0.741585 0.38029 0.552658 -0.741585 0.38029 
0.602249 -0.757614 -0.251629 0.602249 -0.757614 -0.251629 0.602249 -0.757614 -0.251629 
-0.78325 -0.361616 -0.50572 -0.78325 -0.361616 -0.50572 -0.78325 -0.361616 -0.50572 
-0.90249 -0.416667 0.109089 -0.90249 -0.416667 0.109089 -0.90249 -0.416667 0.109089 
-0.850709 -0.452016 0.268283 -0.850709 -0.452016 0.268283 -0.850709 -0.452016 0.268283 
-0.750571 -0.398809 0.526873 -0.750571 -0.398809 0.526873 -0.750571 -0.398809 0.526873 
-0.507906 -0.175444 0.843357 -0.507906 -0.175444 0.843357 -0.507906 -0.175444 0.843357 
-0.348824 -0.144929 0.925914 -0.348824 -0.144929 0.925914 -0.348824 -0.144929 0.925914 
0.376389 -0.622487 -0.686179 0.376389 -0.622487 -0.686179 0.376389 -0.622487 -0.686179 
-0.0725264 -0.26743 0.960844 -0.0725264 -0.26743 0.960844 -0.0725264 -0.26743 0.960844 
0.251074 -0.402346 0.880386 0.251074 -0.402346 0.880386 0.251074 -0.402346 0.880386 
0.224437 -0.405057 0.886317 0.224437 -0.405057 0.886317 0.224437 -0.405057 0.886317 
0.36403 -0.488474 0.793016 0.36403 -0.488474 0.793016 0.36403 -0.488474 0.793016 
0.614937 -0.733133 -0.290464 0.614937 -0.733133 -0.290464 0.614937 -0.733133 -0.290464 
-0.672172 -0.114569 -0.731477 -0.672172 -0.114569 -0.731477 -0.672172 -0.114569 -0.731477 
-0.685898 -0.14821 0.712445 -0.685898 -0.14821 0.712445 -0.685898 -0.14821 0.712445 
-0.463349 -0.0461362 0.884974 -0.463349 -0.0461362 0.884974 -0.463349 -0.0461362 0.884974 
0.0306828 -0.319216 -0.947185 0.0306828 -0.319216 -0.947185 0.0306828 -0.319216 -0.947185 
0.512338 -0.610814 -0.603669 0.512338 -0.610814 -0.603669 0.512338 -0.610814 -0.603669 
0.662308 -0.696555 -0.275971 0.662308 -0.696555 -0.275971 0.662308 -0.696555 -0.275971 
-0.876087 -0.0222133 0.481642 -0.876087 -0.0222133 0.481642 -0.876087 -0.0222133 0.481642 
-0.69345 -0.0175825 0.72029 -0.69345 -0.0175825 0.72029 -0.69345 -0.0175825 0.72029 
-0.386516 -0.0162704 0.922139 -0.386516 -0.0162704 0.922139 -0.386516 -0.0162704 0.922139 
-0.37869 -0.0253398 0.925176 -0.37869 -0.0253398 0.925176 -0.37869 -0.0253398 0.925176 
0.270838 -0.413233 -0.869416 0.270838 -0.413233 -0.869416 0.270838 -0.413233 -0.869416 
0.152096 -0.32581 -0.933121 0.152096 -0.32581 -0.933121 0.152096 -0.32581 -0.933121 
-0.0751783 -0.0487682 0.995977 -0.0751783 -0.0487682 0.995977 -0.0751783 -0.0487682 0.995977 
-0.174991 0.0853448 0.980864 -0.174991 0.0853448 0.980864 -0.174991 0.0853448 0.980864 
0.0218649 -0.112617 0.993398 0.0218649 -0.112617 0.993398 0.0218649 -0.112617 0.993398 
0.724582 -0.686012 -0.0660912 0.724582 -0.686012 -0.0660912 0.724582 -0.686012 -0.0660912 
0.715434 -0.677352 0.171314 0.715434 -0.677352 0.171314 0.715434 -0.677352 0.171314 
-0.675753 0.0508348 -0.735373 -0.675753 0.0508348 -0.735373 -0.675753 0.0508348 -0.735373 
-0.6371 0.0454527 0.76944 -0.6371 0.0454527 0.76944 -0.6371 0.0454527 0.76944 
-0.236243 -0.150361 -0.95999 -0.236243 -0.150361 -0.95999 -0.236243 -0.150361 -0.95999 
-0.488609 0.0514512 0.870985 -0.488609 0.0514512 0.870985 -0.488609 0.0514512 0.870985 
-0.0650937 -0.201547 -0.977313 -0.0650937 -0.201547 -0.977313 -0.0650937 -0.201547 -0.977313 
-0.379667 0.188102 0.905798 -0.379667 0.188102 0.905798 -0.379667 0.188102 0.905798 
-0.187561 0.156514 0.969703 -0.187561 0.156514 0.969703 -0.187561 0.156514 0.969703 
0.374467 -0.475834 -0.795837 0.374467 -0.475834 -0.795837 0.374467 -0.475834 -0.795837 
0.503109 -0.361941 0.78478 0.503109 -0.361941 0.78478 0.503109 -0.361941 0.78478 
0.709964 -0.510754 0.484853 0.709964 -0.510754 0.484853 0.709964 -0.510754 0.484853 
-0.784868 0.285996 -0.549717 -0.784868 0.285996 -0.549717 -0.784868 0.285996 -0.549717 
-0.404962 0.195582 0.893171 -0.404962 0.195582 0.893171 -0.404962 0.195582 0.893171 
0.247813 -0.363781 -0.897915 0.247813 -0.363781 -0.897915 0.247813 -0.363781 -0.897915 
0.43794 -0.461344 -0.771602 0.43794 -0.461344 -0.771602 0.43794 -0.461344 -0.771602 
0.538963 -0.567765 -0.622223 0.538963 -0.567765 -0.622223 0.538963 -0.567765 -0.622223 
0.582427 -0.568382 -0.581137 0.582427 -0.568382 -0.581137 0.582427 -0.568382 -0.581137 
0.650214 -0.598487 -0.468012 0.650214 -0.598487 -0.468012 0.650214 -0.598487 -0.468012 
-0.928254 0.338245 0.154711 -0.928254 0.338245 0.154711 -0.928254 0.338245 0.154711 
-0.896221 0.372852 0.240353 -0.896221 0.372852 0.240353 -0.896221 0.372852 0.240353 
-0.725904 0.301996 0.61795 -0.725904 0.301996 0.61795 -0.725904 0.301996 0.61795 
-0.42338 0.380923 0.821978 -0.42338 0.380923 0.821978 -0.42338 0.380923 0.821978 
-0.24144 -0.0987876 -0.965374 -0.24144 -0.0987876 -0.965374 -0.24144 -0.0987876 -0.965374 
-0.193719 -0.106898 -0.975216 -0.193719 -0.106898 -0.975216 -0.193719 -0.106898 -0.975216 
-0.283639 0.288645 0.914458 -0.283639 0.288645 0.914458 -0.283639 0.288645 0.914458 
0.439054 -0.441586 -0.782454 0.439054 -0.441586 -0.782454 0.439054 -0.441586 -0.782454 
0.194039 0.0599057 0.979163 0.194039 0.0599057 0.979163 0.194039 0.0599057 0.979163 
0.322545 -0.00896226 0.946512 0.322545 -0.00896226 0.946512 0.322545 -0.00896226 0.946512 
0.720253 -0.570967 -0.393995 0.720253 -0.570967 -0.393995 0.720253 -0.570967 -0.393995 
-0.472317 0.387015 0.791919 -0.472317 0.387015 0.791919 -0.472317 0.387015 0.791919 
-0.44586 0.0617293 -0.892972 -0.44586 0.0617293 -0.892972 -0.44586 0.0617293 -0.892972 
-0.436227 0.36438 0.82276 -0.436227 0.36438 0.82276 -0.436227 0.36438 0.82276 
0.0721955 -0.201448 -0.976835 0.0721955 -0.201448 -0.976835 0.0721955 -0.201448 -0.976835 
0.144925 -0.252449 -0.956696 0.144925 -0.252449 -0.956696 0.144925 -0.252449 -0.956696 
-0.276494 0.359051 0.891422 -0.276494 0.359051 0.891422 -0.276494 0.359051 0.891422 
1.45495e-05 0.249127 0.968471 1.45495e-05 0.249127 0.968471 1.45495e-05 0.249127 0.968471 
0.000567749 0.24887 0.968537 0.000567749 0.24887 0.968537 0.000567749 0.24887 0.968537 
0.414162 0.0449714 0.909092 0.414162 0.0449714 0.909092 0.414162 0.0449714 0.909092 
0.820632 -0.562293 -0.101934 0.820632 -0.562293 -0.101934 0.820632 -0.562293 -0.101934 
0.822803 -0.563781 -0.0717416 0.822803 -0.563781 -0.0717416 0.822803 -0.563781 -0.0717416 
0.818215 -0.395947 0.416834 0.818215 -0.395947 0.416834 0.818215 -0.395947 0.416834 
0.834864 -0.404004 0.373876 0.834864 -0.404004 0.373876 0.834864 -0.404004 0.373876 
-0.861322 0.498964 0.0957028 -0.861322 0.498964 0.0957028 -0.861322 0.498964 0.0957028 
-0.767932 0.31198 -0.559419 -0.767932 0.31198 -0.559419 -0.767932 0.31198 -0.559419 
-0.85027 0.492562 -0.185536 -0.85027 0.492562 -0.185536 -0.85027 0.492562 -0.185536 
-0.709606 0.581449 0.397966 -0.709606 0.581449 0.397966 -0.709606 0.581449 0.397966 
-0.241493 0.096592 -0.965583 -0.241493 0.096592 -0.965583 -0.241493 0.096592 -0.965583 
-0.285942 0.388032 0.876167 -0.285942 0.388032 0.876167 -0.285942 0.388032 0.876167 
0.326883 -0.319922 -0.889268 0.326883 -0.319922 -0.889268 0.326883 -0.319922 -0.889268 
0.383105 -0.361795 -0.849903 0.383105 -0.361795 -0.849903 0.383105 -0.361795 -0.849903 
0.58128 -0.520975 -0.625059 0.58128 -0.520975 -0.625059 0.58128 -0.520975 -0.625059 
-0.625413 0.286104 -0.72595 -0.625413 0.286104 -0.72595 -0.625413 0.286104 -0.72595 
-0.59253 0.26306 -0.761385 -0.59253 0.26306 -0.761385 -0.59253 0.26306 -0.761385 
-0.261588 0.633698 0.72801 -0.261588 0.633698 0.72801 -0.261588 0.633698 0.72801 
-0.439999 0.29856 -0.846914 -0.439999 0.29856 -0.846914 -0.439999 0.29856 -0.846914 
-0.290334 0.623049 0.726303 -0.290334 0.623049 0.726303 -0.290334 0.623049 0.726303 
-0.0473986 0.190775 -0.980489 -0.0473986 0.190775 -0.980489 -0.0473986 0.190775 -0.980489 
-0.297182 0.629894 0.717577 -0.297182 0.629894 0.717577 -0.297182 0.629894 0.717577 
0.0736234 -0.0475059 -0.996154 0.0736234 -0.0475059 -0.996154 0.0736234 -0.0475059 -0.996154 
0.242561 -0.156041 -0.957505 0.242561 -0.156041 -0.957505 0.242561 -0.156041 -0.957505 
0.234727 -0.150146 -0.960395 0.234727 -0.150146 -0.960395 0.234727 -0.150146 -0.960395 
0.0460441 0.290644 0.955723 0.0460441 0.290644 0.955723 0.0460441 0.290644 0.955723 
0.877777 -0.478935 0.0113917 0.877777 -0.478935 0.0113917 0.877777 -0.478935 0.0113917 
0.785016 -0.428323 0.447536 0.785016 -0.428323 0.447536 0.785016 -0.428323 0.447536 
0.867732 -0.494283 0.052207 0.867732 -0.494283 0.052207 0.867732 -0.494283 0.052207 
-0.473366 0.726908 0.497523 -0.473366 0.726908 0.497523 -0.473366 0.726908 0.497523 
-0.328765 0.623027 0.709754 -0.328765 0.623027 0.709754 -0.328765 0.623027 0.709754 
-0.244338 0.569992 0.78448 -0.244338 0.569992 0.78448 -0.244338 0.569992 0.78448 
-0.177201 0.447042 0.876786 -0.177201 0.447042 0.876786 -0.177201 0.447042 0.876786 
-0.137101 0.432967 0.890922 -0.137101 0.432967 0.890922 -0.137101 0.432967 0.890922 
0.541052 -0.48492 -0.687107 0.541052 -0.48492 -0.687107 0.541052 -0.48492 -0.687107 
0.395942 0.10311 0.912468 0.395942 0.10311 0.912468 0.395942 0.10311 0.912468 
0.711645 -0.543077 -0.445677 0.711645 -0.543077 -0.445677 0.711645 -0.543077 -0.445677 
0.721193 -0.550364 -0.420691 0.721193 -0.550364 -0.420691 0.721193 -0.550364 -0.420691 
0.868864 -0.494927 -0.0110478 0.868864 -0.494927 -0.0110478 0.868864 -0.494927 -0.0110478 
-0.547671 0.834408 -0.0618002 -0.547671 0.834408 -0.0618002 -0.547671 0.834408 -0.0618002 
-0.544727 0.836492 -0.0596092 -0.544727 0.836492 -0.0596092 -0.544727 0.836492 -0.0596092 
-0.547968 0.834861 -0.0523334 -0.547968 0.834861 -0.0523334 -0.547968 0.834861 -0.0523334 
-0.26551 0.860717 -0.434362 -0.26551 0.860717 -0.434362 -0.26551 0.860717 -0.434362 
-0.272517 0.883431 -0.381161 -0.272517 0.883431 -0.381161 -0.272517 0.883431 -0.381161 
-0.221705 0.922504 0.315963 -0.221705 0.922504 0.315963 -0.221705 0.922504 0.315963 
-0.209643 0.872312 0.441725 -0.209643 0.872312 0.441725 -0.209643 0.872312 0.441725 
0.168874 0.680888 -0.712652 0.168874 0.680888 -0.712652 0.168874 0.680888 -0.712652 
-0.112613 0.497501 -0.860123 -0.112613 0.497501 -0.860123 -0.112613 0.497501 -0.860123 
0.147038 0.0261275 -0.988786 0.147038 0.0261275 -0.988786 0.147038 0.0261275 -0.988786 
-0.262612 0.527083 -0.80822 -0.262612 0.527083 -0.80822 -0.262612 0.527083 -0.80822 
0.0598097 0.0916629 -0.993992 0.0598097 0.0916629 -0.993992 0.0598097 0.0916629 -0.993992 
-0.125986 0.43801 0.890098 -0.125986 0.43801 0.890098 -0.125986 0.43801 0.890098 
0.417306 0.11015 0.902066 0.417306 0.11015 0.902066 0.417306 0.11015 0.902066 
-0.129045 0.988078 -0.0839609 -0.129045 0.988078 -0.0839609 -0.129045 0.988078 -0.0839609 
-0.19519 0.862307 -0.467255 -0.19519 0.862307 -0.467255 -0.19519 0.862307 -0.467255 
-0.377159 0.909591 0.174343 -0.377159 0.909591 0.174343 -0.377159 0.909591 0.174343 
-0.405878 0.767353 0.49642 -0.405878 0.767353 0.49642 -0.405878 0.767353 0.49642 
-0.32123 0.905048 0.278747 -0.32123 0.905048 0.278747 -0.32123 0.905048 0.278747 
-0.303125 0.754721 0.581817 -0.303125 0.754721 0.581817 -0.303125 0.754721 0.581817 
-0.473657 0.564777 0.675779 -0.473657 0.564777 0.675779 -0.473657 0.564777 0.675779 
-0.437057 0.567429 0.697858 -0.437057 0.567429 0.697858 -0.437057 0.567429 0.697858 
0.183152 -0.24673 -0.951619 0.183152 -0.24673 -0.951619 0.183152 -0.24673 -0.951619 
0.38325 -0.400624 -0.832238 0.38325 -0.400624 -0.832238 0.38325 -0.400624 -0.832238 
-0.136534 0.481494 0.865749 -0.136534 0.481494 0.865749 -0.136534 0.481494 0.865749 
0.381435 -0.00829663 0.924358 0.381435 -0.00829663 0.924358 0.381435 -0.00829663 0.924358 
-0.263225 0.459663 -0.848188 -0.263225 0.459663 -0.848188 -0.263225 0.459663 -0.848188 
-0.489285 0.854424 -0.174812 -0.489285 0.854424 -0.174812 -0.489285 0.854424 -0.174812 
-0.68996 0.69178 0.213062 -0.68996 0.69178 0.213062 -0.68996 0.69178 0.213062 
-0.60697 0.723736 0.328319 -0.60697 0.723736 0.328319 -0.60697 0.723736 0.328319 
-0.339653 0.491829 0.801711 -0.339653 0.491829 0.801711 -0.339653 0.491829 0.801711 
-0.0079241 0.284728 0.958576 -0.0079241 0.284728 0.958576 -0.0079241 0.284728 0.958576 
0.586377 -0.114888 0.80185 0.586377 -0.114888 0.80185 0.586377 -0.114888 0.80185 
0.683937 -0.0399775 0.728445 0.683937 -0.0399775 0.728445 0.683937 -0.0399775 0.728445 
0.716614 -0.36672 -0.59328 0.716614 -0.36672 -0.59328 0.716614 -0.36672 -0.59328 
0.888504 -0.454682 -0.0618526 0.888504 -0.454682 -0.0618526 0.888504 -0.454682 -0.0618526 
0.863144 -0.169114 0.475796 0.863144 -0.169114 0.475796 0.863144 -0.169114 0.475796 
-0.435292 0.246602 -0.865857 -0.435292 0.246602 -0.865857 -0.435292 0.246602 -0.865857 
-0.0483057 -0.0153091 -0.998715 -0.0483057 -0.0153091 -0.998715 -0.0483057 -0.0153091 -0.998715 
-0.055434 -0.0135339 -0.998371 -0.055434 -0.0135339 -0.998371 -0.055434 -0.0135339 -0.998371 
-0.359372 0.496845 0.789935 -0.359372 0.496845 0.789935 -0.359372 0.496845 0.789935 
0.567741 -0.437383 -0.6974 0.567741 -0.437383 -0.6974 0.567741 -0.437383 -0.6974 
0.800487 -0.496485 -0.335744 0.800487 -0.496485 -0.335744 0.800487 -0.496485 -0.335744 
0.800156 -0.49628 -0.336834 0.800156 -0.49628 -0.336834 0.800156 -0.49628 -0.336834 
-0.718629 0.640661 0.27042 -0.718629 0.640661 0.27042 -0.718629 0.640661 0.27042 
-0.669765 0.597099 -0.441461 -0.669765 0.597099 -0.441461 -0.669765 0.597099 -0.441461 
-0.121862 -0.0465403 -0.991455 -0.121862 -0.0465403 -0.991455 -0.121862 -0.0465403 -0.991455 
0.146482 -0.248269 -0.957552 0.146482 -0.248269 -0.957552 0.146482 -0.248269 -0.957552 
0.159387 -0.251305 -0.954695 0.159387 -0.251305 -0.954695 0.159387 -0.251305 -0.954695 
0.419735 -0.393685 -0.817823 0.419735 -0.393685 -0.817823 0.419735 -0.393685 -0.817823 
0.591864 -0.455967 -0.664674 0.591864 -0.455967 -0.664674 0.591864 -0.455967 -0.664674 
-0.505673 0.372225 -0.778295 -0.505673 0.372225 -0.778295 -0.505673 0.372225 -0.778295 
-0.798627 0.587869 -0.128863 -0.798627 0.587869 -0.128863 -0.798627 0.587869 -0.128863 
-0.747553 0.635995 0.191508 -0.747553 0.635995 0.191508 -0.747553 0.635995 0.191508 
-0.614805 0.523058 0.590276 -0.614805 0.523058 0.590276 -0.614805 0.523058 0.590276 
-0.72343 0.157046 -0.672299 -0.72343 0.157046 -0.672299 -0.72343 0.157046 -0.672299 
-0.241993 -0.0578271 -0.968553 -0.241993 -0.0578271 -0.968553 -0.241993 -0.0578271 -0.968553 
-0.23802 -0.189213 -0.952651 -0.23802 -0.189213 -0.952651 -0.23802 -0.189213 -0.952651 
-0.492191 0.439291 0.751513 -0.492191 0.439291 0.751513 -0.492191 0.439291 0.751513 
-0.281511 0.431646 0.856991 -0.281511 0.431646 0.856991 -0.281511 0.431646 0.856991 
0.0719553 0.302116 0.950552 0.0719553 0.302116 0.950552 0.0719553 0.302116 0.950552 
0.449479 0.153254 0.880046 0.449479 0.153254 0.880046 0.449479 0.153254 0.880046 
0.484054 0.159831 0.860317 0.484054 0.159831 0.860317 0.484054 0.159831 0.860317 
0.83145 -0.21698 0.511478 0.83145 -0.21698 0.511478 0.83145 -0.21698 0.511478 
-0.957236 0.244628 -0.154455 -0.957236 0.244628 -0.154455 -0.957236 0.244628 -0.154455 
-0.788241 0.40244 0.46553 -0.788241 0.40244 0.46553 -0.788241 0.40244 0.46553 
0.658249 -0.31816 -0.682263 0.658249 -0.31816 -0.682263 0.658249 -0.31816 -0.682263 
0.95682 -0.278584 -0.0829817 0.95682 -0.278584 -0.0829817 0.95682 -0.278584 -0.0829817 
0.83062 -0.401474 -0.385861 0.83062 -0.401474 -0.385861 0.83062 -0.401474 -0.385861 
0.919023 -0.267579 0.28948 0.919023 -0.267579 0.28948 0.919023 -0.267579 0.28948 
0.932705 -0.243404 0.266112 0.932705 -0.243404 0.266112 0.932705 -0.243404 0.266112 
-0.610379 0.522678 0.595185 -0.610379 0.522678 0.595185 -0.610379 0.522678 0.595185 