# vtk DataFile Version 4.2
3D Slicer output. SPACE=LPS
ASCII
DATASET POLYDATA
POINTS 2064 double
5.9617333412 -5.7494783401 1.8594961166 6.942961216 -5.958630085 0.87462043762 7.9241881371 -6.0067362785 1.8594961166 
5.9617333412 -5.4664049149 -0.11025619507 3.7884507179 -5.0445761681 0.87462043762 2.0368256569 -4.0300607681 -0.11025619507 
5.9617333412 -5.4664049149 -0.11025619507 6.942961216 -5.958630085 0.87462043762 3.7884507179 -5.0445761681 0.87462043762 
6.942961216 -5.958630085 0.87462043762 5.9617333412 -5.7494783401 1.8594961166 3.7884507179 -5.0445761681 0.87462043762 
8.9054145813 -4.4953756332 -0.11025619507 6.942961216 -5.958630085 0.87462043762 5.9617333412 -5.4664049149 -0.11025619507 
7.9241881371 -6.0067362785 1.8594961166 7.9241881371 -5.0445761681 3.6591644287 5.9617333412 -5.7494783401 1.8594961166 
7.9241881371 -6.0067362785 1.8594961166 8.9054145813 -5.8010010719 2.8443727493 7.9241881371 -5.0445761681 3.6591644287 
8.9054145813 -4.4953756332 -0.11025619507 11.849096298 -4.1310348511 1.8594961166 6.942961216 -5.958630085 0.87462043762 
6.942961216 -5.958630085 0.87462043762 11.849096298 -4.1310348511 1.8594961166 7.9241881371 -6.0067362785 1.8594961166 
11.849096298 -4.1310348511 1.8594961166 10.867868423 -5.1288514137 2.8443727493 7.9241881371 -6.0067362785 1.8594961166 
7.9241881371 -6.0067362785 1.8594961166 10.867868423 -5.1288514137 2.8443727493 8.9054145813 -5.8010010719 2.8443727493 
10.867868423 -5.1288514137 2.8443727493 10.867868423 -4.9794750214 3.829249382 8.9054145813 -5.8010010719 2.8443727493 
2.0368256569 -4.0300607681 -0.11025619507 3.7884507179 -5.0445761681 0.87462043762 2.0368256569 -3.080842495 1.2294387817 
5.9617333412 -5.4664049149 -0.11025619507 2.0368256569 -4.0300607681 -0.11025619507 2.0368256569 -3.318500042 -1.0951328278 
5.9617333412 -5.4664049149 -0.11025619507 2.0368256569 -3.318500042 -1.0951328278 4.9805064201 -4.4763970375 -1.0951328278 
3.7884507179 -5.0445761681 0.87462043762 5.9617333412 -5.7494783401 1.8594961166 2.0368256569 -3.080842495 1.2294387817 
5.9617333412 -5.7494783401 1.8594961166 5.9617333412 -4.0627093315 3.329167366 2.0368256569 -3.080842495 1.2294387817 
8.9054145813 -4.4953756332 -0.11025619507 5.9617333412 -5.4664049149 -0.11025619507 4.9805064201 -4.4763970375 -1.0951328278 
7.9241881371 -5.0445761681 3.6591644287 5.9617333412 -4.0627093315 3.329167366 5.9617333412 -5.7494783401 1.8594961166 
5.9617333412 -4.0627093315 3.329167366 7.9241881371 -5.0445761681 3.6591644287 7.9241881371 -4.0627093315 4.2269067764 
8.9054145813 -5.8010010719 2.8443727493 10.867868423 -4.0627093315 4.7928256989 7.9241881371 -5.0445761681 3.6591644287 
10.867868423 -4.0627093315 4.7928256989 7.9241881371 -4.0627093315 4.2269067764 7.9241881371 -5.0445761681 3.6591644287 
10.867868423 -4.9794750214 3.829249382 10.867868423 -4.0627093315 4.7928256989 8.9054145813 -5.8010010719 2.8443727493 
10.867868423 -4.0627093315 4.7928256989 10.867868423 -4.9794750214 3.829249382 12.830322266 -3.1162109375 4.8141260147 
2.0368256569 -3.318500042 -1.0951328278 2.0368256569 -4.0300607681 -0.11025619507 1.4175567627 -3.080842495 -0.11025619507 
2.0368256569 -2.0989761353 -1.7022304535 2.0368256569 -3.318500042 -1.0951328278 1.4175567627 -3.080842495 -0.11025619507 
2.0368256569 -4.0300607681 -0.11025619507 2.0368256569 -3.080842495 1.2294387817 1.4175567627 -3.080842495 -0.11025619507 
4.9805064201 -4.4763970375 -1.0951328278 2.0368256569 -3.318500042 -1.0951328278 3.9992794991 -2.0989761353 -2.1957406998 
5.9617333412 -2.0989761353 3.8205785751 2.0368256569 -3.080842495 1.2294387817 5.9617333412 -4.0627093315 3.329167366 
8.9054145813 -4.4953756332 -0.11025619507 4.9805064201 -4.4763970375 -1.0951328278 8.9054145813 -3.080842495 -1.1480846405 
5.9617333412 -2.0989761353 3.8205785751 5.9617333412 -4.0627093315 3.329167366 7.9241881371 -4.0627093315 4.2269067764 
7.9241881371 -4.0627093315 4.2269067764 10.867868423 -4.0627093315 4.7928256989 10.867868423 -2.0989761353 5.4401826859 
14.432380676 -1.1171092987 0.87462043762 8.9054145813 -4.4953756332 -0.11025619507 8.9054145813 -3.080842495 -1.1480846405 
8.9054145813 -4.4953756332 -0.11025619507 14.432380676 -1.1171092987 0.87462043762 11.849096298 -4.1310348511 1.8594961166 
10.867868423 -4.0627093315 4.7928256989 12.830322266 -3.1162109375 4.8141260147 12.830322266 -2.0989761353 5.4020738602 
10.867868423 -2.0989761353 5.4401826859 10.867868423 -4.0627093315 4.7928256989 12.830322266 -2.0989761353 5.4020738602 
14.976776123 -2.0989761353 2.8443727493 10.867868423 -5.1288514137 2.8443727493 11.849096298 -4.1310348511 1.8594961166 
14.976776123 -2.0989761353 2.8443727493 10.867868423 -4.9794750214 3.829249382 10.867868423 -5.1288514137 2.8443727493 
10.867868423 -4.9794750214 3.829249382 14.976776123 -2.0989761353 2.8443727493 14.792776108 -2.3701591492 3.829249382 
2.0368256569 -3.080842495 1.2294387817 2.0368256569 -1.1171092987 1.8386831284 1.4175567627 -3.080842495 -0.11025619507 
3.9992794991 -2.0989761353 -2.1957406998 2.0368256569 -3.318500042 -1.0951328278 2.0368256569 -2.0989761353 -1.7022304535 
2.0368256569 -1.1171092987 1.8386831284 2.0368256569 -3.080842495 1.2294387817 5.9617333412 -2.0989761353 3.8205785751 
3.9992794991 -2.0989761353 -2.1957406998 5.9617333412 -0.13524246216 -2.8554000854 4.9805064201 -4.4763970375 -1.0951328278 
4.9805064201 -4.4763970375 -1.0951328278 5.9617333412 -0.13524246216 -2.8554000854 8.9054145813 -3.080842495 -1.1480846405 
7.9241881371 -4.0627093315 4.2269067764 6.942961216 -2.0989761353 4.2853183746 5.9617333412 -2.0989761353 3.8205785751 
7.9241881371 -4.0627093315 4.2269067764 10.867868423 -2.0989761353 5.4401826859 6.942961216 -2.0989761353 4.2853183746 
10.867868423 -4.9794750214 3.829249382 14.792776108 -2.3701591492 3.829249382 12.830322266 -3.1162109375 4.8141260147 
14.432380676 -1.1171092987 0.87462043762 14.976776123 -2.0989761353 2.8443727493 11.849096298 -4.1310348511 1.8594961166 
14.792776108 -2.3701591492 3.829249382 16.720609665 -0.13524246216 4.8141260147 12.830322266 -3.1162109375 4.8141260147 
0.074371337891 -0.13524246216 -0.15490627289 2.0368256569 -2.0989761353 -1.7022304535 1.4175567627 -3.080842495 -0.11025619507 
0.074371337891 -0.13524246216 -0.15490627289 1.4175567627 -3.080842495 -0.11025619507 2.0368256569 -1.1171092987 1.8386831284 
3.9992794991 -2.0989761353 -2.1957406998 2.0368256569 -2.0989761353 -1.7022304535 3.018052578 -0.13524246216 -2.4079728127 
10.867868423 -2.0989761353 5.4401826859 8.9054145813 -0.13524246216 5.0346851349 6.942961216 -2.0989761353 4.2853183746 
14.432380676 -1.1171092987 0.87462043762 8.9054145813 -3.080842495 -1.1480846405 13.81155014 0.84662437439 -0.86415672302 
16.720609665 -0.13524246216 4.8141260147 15.774003983 -0.13524246216 5.4464826584 12.830322266 -3.1162109375 4.8141260147 
12.830322266 -3.1162109375 4.8141260147 15.774003983 -0.13524246216 5.4464826584 12.830322266 -2.0989761353 5.4020738602 
18.581068039 1.8284912109 3.829249382 14.792776108 -2.3701591492 3.829249382 14.976776123 -2.0989761353 2.8443727493 
14.792776108 -2.3701591492 3.829249382 18.581068039 1.8284912109 3.829249382 16.720609665 -0.13524246216 4.8141260147 
2.0368256569 -2.0989761353 -1.7022304535 0.074371337891 -0.13524246216 -0.15490627289 1.1738357544 1.8284912109 -1.0951328278 
2.0368256569 -2.0989761353 -1.7022304535 1.1738357544 1.8284912109 -1.0951328278 2.0368256569 1.8284912109 -2.0151081085 
2.0368256569 -2.0989761353 -1.7022304535 2.0368256569 1.8284912109 -2.0151081085 3.018052578 -0.13524246216 -2.4079728127 
4.9805064201 0.84662437439 3.2816181183 2.0368256569 1.8284912109 1.6603603363 2.0368256569 -1.1171092987 1.8386831284 
3.9992794991 -2.0989761353 -2.1957406998 3.018052578 -0.13524246216 -2.4079728127 5.9617333412 -0.13524246216 -2.8554000854 
4.9805064201 0.84662437439 3.2816181183 2.0368256569 -1.1171092987 1.8386831284 5.9617333412 -2.0989761353 3.8205785751 
5.9617333412 -2.0989761353 3.8205785751 6.942961216 -2.0989761353 4.2853183746 4.9805064201 0.84662437439 3.2816181183 
8.9054145813 -0.13524246216 5.0346851349 4.9805064201 0.84662437439 3.2816181183 6.942961216 -2.0989761353 4.2853183746 
9.8866424561 1.8284912109 -2.8114609718 8.9054145813 -3.080842495 -1.1480846405 5.9617333412 -0.13524246216 -2.8554000854 
13.81155014 0.84662437439 -0.86415672302 8.9054145813 -3.080842495 -1.1480846405 9.8866424561 1.8284912109 -2.8114609718 
8.9054145813 -0.13524246216 5.0346851349 10.867868423 -2.0989761353 5.4401826859 13.81155014 0.84662437439 5.8869991302 
12.830322266 -2.0989761353 5.4020738602 13.81155014 0.84662437439 5.8869991302 10.867868423 -2.0989761353 5.4401826859 
12.830322266 -2.0989761353 5.4020738602 15.774003983 -0.13524246216 5.4464826584 13.81155014 0.84662437439 5.8869991302 
0.074371337891 -0.13524246216 -0.15490627289 2.0368256569 -1.1171092987 1.8386831284 2.0368256569 1.8284912109 1.6603603363 
6.942961216 3.792224884 -3.5218138695 5.9617333412 -0.13524246216 -2.8554000854 3.018052578 -0.13524246216 -2.4079728127 
17.798116684 2.8103580475 0.87462043762 14.432380676 -1.1171092987 0.87462043762 13.81155014 0.84662437439 -0.86415672302 
14.976776123 -2.0989761353 2.8443727493 14.432380676 -1.1171092987 0.87462043762 18.493118286 1.8284912109 2.8443727493 
18.581068039 1.8284912109 3.829249382 14.976776123 -2.0989761353 2.8443727493 18.493118286 1.8284912109 2.8443727493 
0.74471187592 1.8284912109 -0.11025619507 1.1738357544 1.8284912109 -1.0951328278 0.074371337891 -0.13524246216 -0.15490627289 
1.5512051582 2.8103580475 0.87462043762 0.74471187592 1.8284912109 -0.11025619507 2.0368256569 1.8284912109 1.6603603363 
2.0368256569 1.8284912109 1.6603603363 0.74471187592 1.8284912109 -0.11025619507 0.074371337891 -0.13524246216 -0.15490627289 
5.9617333412 2.8103580475 3.2754650116 4.9805064201 0.84662437439 3.2816181183 8.9054145813 -0.13524246216 5.0346851349 
5.9617333412 2.8103580475 3.2754650116 8.9054145813 -0.13524246216 5.0346851349 11.849096298 1.8284912109 5.5420732498 
[...]
CELL_DATA 688
FIELD FieldData 1
GroupIds 1 688 float
0 0 0 0 0 0 0 0 0 
0 0 0 0 0 0 0 0 0 
0 0 0 0 0 0 0 0 0 
0 0 0 0 0 0 0 0 0 
0 0 0 0 0 0 0 0 0 
0 0 0 0 0 0 0 0 0 
0 0 0 0 0 0 0 0 0 
0 0 0 0 0 0 0 0 0 
0 0 0 0 0 0 0 0 0 
0 0 0 0 0 0 0 0 0 
0 0 0 0 0 0 0 0 0 
0 0 0 0 0 0 0 0 0 
0 0 0 0 0 0 0 0 0 
0 0 0 0 0 0 0 0 0 
0 0 0 0 0 0 0 0 0 
0 0 0 0 0 0 0 0 0 
0 0 0 0 0 0 0 0 0 
0 0 0 0 0 0 0 0 0 
0 0 0 0 0 0 0 0 0 
0 0 0 0 0 0 0 0 0 
0 0 0 0 0 0 0 0 0 
0 0 0 0 0 0 0 0 0 
0 0 0 0 0 0 0 0 0 
0 0 0 0 0 0 0 0 0 
0 0 0 0 0 0 0 0 0 
0 0 0 0 0 0 0 0 0 
0 0 0 0 0 0 0 0 0 
0 0 0 0 0 0 0 0 0 
0 0 0 0 0 0 0 0 0 
0 0 0 0 0 0 0 0 0 
0 0 0 0 0 0 0 0 0 
0 0 0 0 0 0 0 0 0 
0 0 0 0 0 0 0 0 0 
0 0 0 0 0 0 0 0 0 
0 0 0 0 0 0 0 0 0 
0 0 0 0 0 0 0 0 0 
0 0 0 0 0 0 0 0 0 
0 0 0 0 0 0 0 0 0 
0 0 0 0 0 0 0 0 0 
0 0 0 0 0 0 0 0 0 
0 0 0 0 0 0 0 0 0 
0 0 0 0 0 0 0 0 0 
0 0 0 0 0 0 0 0 0 
0 0 0 0 0 0 0 0 0 
0 0 0 0 0 0 0 0 0 
0 0 0 0 0 0 0 0 0 
0 0 0 0 0 0 0 0 0 
0 0 0 0 0 0 0 0 0 
0 0 0 0 0 0 0 0 0 
0 0 0 0 0 0 0 0 0 
0 0 0 0 0 0 0 0 0 
0 0 0 0 0 0 0 0 0 
0 0 0 0 0 0 0 0 0 
0 0 0 0 0 0 0 0 0 
0 0 0 0 0 0 0 0 0 
0 0 0 0 0 0 0 0 0 
0 0 0 0 0 0 0 0 0 
0 0 0 0 0 0 0 0 0 
0 0 0 0 0 0 0 0 0 
0 0 0 0 0 0 0 0 0 
0 0 0 0 0 0 0 0 0 
0 0 0 0 0 0 0 0 0 
0 0 0 0 0 0 0 0 0 
0 0 0 0 0 0 0 0 0 
0 0 0 0 0 0 0 0 0 
0 0 0 0 0 0 0 0 0 
0 0 0 0 0 0 0 0 0 
0 0 0 0 0 0 0 0 0 
0 0 0 0 0 0 0 0 0 
0 0 0 0 0 0 0 0 0 
0 0 0 0 0 0 0 0 0 
0 0 0 0 0 0 0 0 0 
0 0 0 0 0 0 0 0 0 
0 0 0 0 0 0 0 0 0 
0 0 0 0 0 0 0 0 0 
0 0 0 0 0 0 0 0 0 
0 0 0 0 
POINT_DATA 2064
NORMALS Normals float
-0.129553 -0.988275 0.0808006 -0.129553 -0.988275 0.0808006 -0.129553 -0.988275 0.0808006 
-0.323748 -0.884664 -0.335494 -0.323748 -0.884664 -0.335494 -0.323748 -0.884664 -0.335494 
-0.272763 -0.941336 -0.198712 -0.272763 -0.941336 -0.198712 -0.272763 -0.941336 -0.198712 
-0.277568 -0.95792 -0.0731124 -0.277568 -0.95792 -0.0731124 -0.277568 -0.95792 -0.0731124 
0.246204 -0.74637 -0.618316 0.246204 -0.74637 -0.618316 0.246204 -0.74637 -0.618316 
-0.11484 -0.876042 0.46836 -0.11484 -0.876042 0.46836 -0.11484 -0.876042 0.46836 
-0.277043 -0.847358 0.453025 -0.277043 -0.847358 0.453025 -0.277043 -0.847358 0.453025 
0.389698 -0.813369 -0.431934 0.389698 -0.813369 -0.431934 0.389698 -0.813369 -0.431934 
0.389684 -0.815415 -0.42807 0.389684 -0.815415 -0.42807 0.389684 -0.815415 -0.42807 
0.388038 -0.811971 -0.436038 0.388038 -0.811971 -0.436038 0.388038 -0.811971 -0.436038 
0.321516 -0.93872 -0.124231 0.321516 -0.93872 -0.124231 0.321516 -0.93872 -0.124231 
0.320741 -0.936457 0.142033 0.320741 -0.936457 0.142033 0.320741 -0.936457 0.142033 
-0.623572 -0.63788 0.451959 -0.623572 -0.63788 0.451959 -0.623572 -0.63788 0.451959 
-0.284387 -0.777108 -0.561451 -0.284387 -0.777108 -0.561451 -0.284387 -0.777108 -0.561451 
-0.317913 -0.808219 -0.495695 -0.317913 -0.808219 -0.495695 -0.317913 -0.808219 -0.495695 
-0.485954 -0.555395 0.674822 -0.485954 -0.555395 0.674822 -0.485954 -0.555395 0.674822 
-0.493684 -0.571285 0.655675 -0.493684 -0.571285 0.655675 -0.493684 -0.571285 0.655675 
0.194108 -0.58844 -0.784895 0.194108 -0.58844 -0.784895 0.194108 -0.58844 -0.784895 
-0.41449 -0.597833 0.686144 -0.41449 -0.597833 0.686144 -0.41449 -0.597833 0.686144 
-0.368198 -0.465403 0.804879 -0.368198 -0.465403 0.804879 -0.368198 -0.465403 0.804879 
-0.012123 -0.740052 0.67244 -0.012123 -0.740052 0.67244 -0.012123 -0.740052 0.67244 
-0.164171 -0.493778 0.853951 -0.164171 -0.493778 0.853951 -0.164171 -0.493778 0.853951 
-0.0426027 -0.723828 0.688664 -0.0426027 -0.723828 0.688664 -0.0426027 -0.723828 0.688664 
0.323548 -0.685517 0.652214 0.323548 -0.685517 0.652214 0.323548 -0.685517 0.652214 
-0.77902 -0.508232 -0.367191 -0.77902 -0.508232 -0.367191 -0.77902 -0.508232 -0.367191 
-0.847214 -0.236751 -0.47558 -0.847214 -0.236751 -0.47558 -0.847214 -0.236751 -0.47558 
-0.781037 -0.509547 0.361031 -0.781037 -0.509547 0.361031 -0.781037 -0.509547 0.361031 
-0.186914 -0.475184 -0.859804 -0.186914 -0.475184 -0.859804 -0.186914 -0.475184 -0.859804 
-0.501525 -0.21002 0.839264 -0.501525 -0.21002 0.839264 -0.501525 -0.21002 0.839264 
0.195603 -0.580124 -0.790693 0.195603 -0.580124 -0.790693 0.195603 -0.580124 -0.790693 
-0.405626 -0.22189 0.886697 -0.405626 -0.22189 0.886697 -0.405626 -0.22189 0.886697 
-0.179614 -0.307991 0.93428 -0.179614 -0.307991 0.93428 -0.179614 -0.307991 0.93428 
0.450957 -0.527986 -0.719631 0.450957 -0.527986 -0.719631 0.450957 -0.527986 -0.719631 
0.488137 -0.619336 -0.614936 0.488137 -0.619336 -0.614936 0.488137 -0.619336 -0.614936 
0.225955 -0.487471 0.843396 0.225955 -0.487471 0.843396 0.225955 -0.487471 0.843396 
0.0184395 -0.31303 0.949564 0.0184395 -0.31303 0.949564 0.0184395 -0.31303 0.949564 
0.579118 -0.78536 -0.218706 0.579118 -0.78536 -0.218706 0.579118 -0.78536 -0.218706 
0.589113 -0.798914 0.121171 0.589113 -0.798914 0.121171 0.589113 -0.798914 0.121171 
0.549295 -0.826244 -0.124882 0.549295 -0.826244 -0.124882 0.549295 -0.826244 -0.124882 
-0.90012 -0.129087 0.416077 -0.90012 -0.129087 0.416077 -0.90012 -0.129087 0.416077 
-0.219627 -0.434767 -0.873351 -0.219627 -0.434767 -0.873351 -0.219627 -0.434767 -0.873351 
-0.486209 -0.258933 0.834599 -0.486209 -0.258933 0.834599 -0.486209 -0.258933 0.834599 
0.0824805 -0.390441 -0.916926 0.0824805 -0.390441 -0.916926 0.0824805 -0.390441 -0.916926 
0.129096 -0.397544 -0.908457 0.129096 -0.397544 -0.908457 0.129096 -0.397544 -0.908457 
-0.416155 -0.234077 0.878648 -0.416155 -0.234077 0.878648 -0.416155 -0.234077 0.878648 
-0.278301 -0.167194 0.94583 -0.278301 -0.167194 0.94583 -0.278301 -0.167194 0.94583 
0.500597 -0.752994 0.427086 0.500597 -0.752994 0.427086 0.500597 -0.752994 0.427086 
0.578562 -0.654808 -0.486305 0.578562 -0.654808 -0.486305 0.578562 -0.654808 -0.486305 
0.519092 -0.677437 0.521174 0.519092 -0.677437 0.521174 0.519092 -0.677437 0.521174 
-0.772638 -0.360245 -0.522737 -0.772638 -0.360245 -0.522737 -0.772638 -0.360245 -0.522737 
-0.748797 -0.33276 0.573214 -0.748797 -0.33276 0.573214 -0.748797 -0.33276 0.573214 
-0.237849 -0.221066 -0.945811 -0.237849 -0.221066 -0.945811 -0.237849 -0.221066 -0.945811 
-0.281284 -0.0836997 0.955967 -0.281284 -0.0836997 0.955967 -0.281284 -0.0836997 0.955967 
0.449443 -0.508333 -0.734573 0.449443 -0.508333 -0.734573 0.449443 -0.508333 -0.734573 
0.44974 -0.586929 0.673237 0.44974 -0.586929 0.673237 0.44974 -0.586929 0.673237 
0.305436 -0.476499 0.824413 0.305436 -0.476499 0.824413 0.305436 -0.476499 0.824413 
0.741682 -0.669193 -0.0456954 0.741682 -0.669193 -0.0456954 0.741682 -0.669193 -0.0456954 
0.740805 -0.668402 0.0666821 0.740805 -0.668402 0.0666821 0.740805 -0.668402 0.0666821 
-0.630444 -0.0185748 -0.776012 -0.630444 -0.0185748 -0.776012 -0.630444 -0.0185748 -0.776012 
-0.728253 -0.0544219 -0.683144 -0.728253 -0.0544219 -0.683144 -0.728253 -0.0544219 -0.683144 
-0.487303 -0.0693455 -0.870475 -0.487303 -0.0693455 -0.870475 -0.487303 -0.0693455 -0.870475 
-0.468015 0.0534015 0.882106 -0.468015 0.0534015 0.882106 -0.468015 0.0534015 0.882106 
-0.147843 -0.178996 -0.972678 -0.147843 -0.178996 -0.972678 -0.147843 -0.178996 -0.972678 
-0.447828 0.0143982 0.894004 -0.447828 0.0143982 0.894004 -0.447828 0.0143982 0.894004 
-0.427936 0.0227663 0.903522 -0.427936 0.0227663 0.903522 -0.427936 0.0227663 0.903522 
-0.397436 0.0474751 0.916401 -0.397436 0.0474751 0.916401 -0.397436 0.0474751 0.916401 
0.18454 -0.348275 -0.919048 0.18454 -0.348275 -0.919048 0.18454 -0.348275 -0.919048 
0.340046 -0.362036 -0.867928 0.340046 -0.362036 -0.867928 0.340046 -0.362036 -0.867928 
-0.176334 0.0269624 0.983961 -0.176334 0.0269624 0.983961 -0.176334 0.0269624 0.983961 
0.0191373 -0.168614 0.985496 0.0191373 -0.168614 0.985496 0.0191373 -0.168614 0.985496 
0.118478 -0.199598 0.972689 0.118478 -0.199598 0.972689 0.118478 -0.199598 0.972689 
-0.7013 0.0430771 0.711563 -0.7013 0.0430771 0.711563 -0.7013 0.0430771 0.711563 
-0.149012 -0.129121 -0.980369 -0.149012 -0.129121 -0.980369 -0.149012 -0.129121 -0.980369 
0.535307 -0.458744 -0.709226 0.535307 -0.458744 -0.709226 0.535307 -0.458744 -0.709226 
0.655988 -0.587319 -0.474063 0.655988 -0.587319 -0.474063 0.655988 -0.587319 -0.474063 
0.743382 -0.665565 -0.0663842 0.743382 -0.665565 -0.0663842 0.743382 -0.665565 -0.0663842 
-0.872627 0.306525 -0.380215 -0.872627 0.306525 -0.380215 -0.872627 0.306525 -0.380215 
-0.805684 0.0720258 0.587951 -0.805684 0.0720258 0.587951 -0.805684 0.0720258 0.587951 
-0.781342 0.253755 0.570187 -0.781342 0.253755 0.570187 -0.781342 0.253755 0.570187 
-0.362166 0.183828 0.913807 -0.362166 0.183828 0.913807 -0.362166 0.183828 0.913807 
-0.314961 0.234509 0.919677 -0.314961 0.234509 0.919677 -0.314961 0.234509 0.919677 
-0.171717 0.00286693 0.985142 -0.171717 0.00286693 0.985142 -0.171717 0.00286693 0.985142 
0.186311 -0.0673799 0.980178 0.186311 -0.0673799 0.980178 0.186311 -0.0673799 0.980178 
0.528756 -0.30645 0.791521 0.528756 -0.30645 0.791521 0.528756 -0.30645 0.791521 
0.638009 -0.546757 -0.542219 0.638009 -0.546757 -0.542219 0.638009 -0.546757 -0.542219 
0.655334 -0.579276 -0.484744 0.655334 -0.579276 -0.484744 0.655334 -0.579276 -0.484744 
-0.704769 0.257348 -0.661114 -0.704769 0.257348 -0.661114 -0.704769 0.257348 -0.661114 
-0.352659 0.010979 -0.935687 -0.352659 0.010979 -0.935687 -0.352659 0.010979 -0.935687 
-0.53145 0.353272 0.769909 -0.53145 0.353272 0.769909 -0.53145 0.353272 0.769909 
-0.414135 0.217723 0.883793 -0.414135 0.217723 0.883793 -0.414135 0.217723 0.883793 
-0.418977 0.212118 0.882873 -0.418977 0.212118 0.882873 -0.418977 0.212118 0.882873 
0.14092 -0.19974 -0.969663 0.14092 -0.19974 -0.969663 0.14092 -0.19974 -0.969663 
0.0919091 -0.161714 -0.982548 0.0919091 -0.161714 -0.982548 0.0919091 -0.161714 -0.982548 
0.333284 -0.379471 -0.86309 0.333284 -0.379471 -0.86309 0.333284 -0.379471 -0.86309 
-0.107813 0.13073 0.985538 -0.107813 0.13073 0.985538 -0.107813 0.13073 0.985538 
0.494797 -0.274388 -0.824553 0.494797 -0.274388 -0.824553 0.494797 -0.274388 -0.824553 
0.463925 -0.432526 -0.773107 0.463925 -0.432526 -0.773107 0.463925 -0.432526 -0.773107 
0.153706 0.000256829 0.988117 0.153706 0.000256829 0.988117 0.153706 0.000256829 0.988117 
-0.869341 0.317442 -0.378783 -0.869341 0.317442 -0.378783 -0.869341 0.317442 -0.378783 
-0.850298 0.478421 0.219332 -0.850298 0.478421 0.219332 -0.850298 0.478421 0.219332 
-0.234352 -0.0412574 -0.971276 -0.234352 -0.0412574 -0.971276 -0.234352 -0.0412574 -0.971276 
0.278959 -0.155954 -0.947555 0.278959 -0.155954 -0.947555 0.278959 -0.155954 -0.947555 
-0.162403 0.303505 0.938888 -0.162403 0.303505 0.938888 -0.162403 0.303505 0.938888 
0.15337 0.066133 0.985953 0.15337 0.066133 0.985953 0.15337 0.066133 0.985953 
0.694005 -0.338931 0.635203 0.694005 -0.338931 0.635203 0.694005 -0.338931 0.635203 
-0.871037 0.490089 0.0332864 -0.871037 0.490089 0.0332864 -0.871037 0.490089 0.0332864 
-0.614789 0.286098 -0.734971 -0.614789 0.286098 -0.734971 -0.614789 0.286098 -0.734971 
-0.755544 0.499018 0.424422 -0.755544 0.499018 0.424422 -0.755544 0.499018 0.424422 
-0.531873 0.351289 0.770523 -0.531873 0.351289 0.770523 -0.531873 0.351289 0.770523 
-0.543608 0.250976 -0.800938 -0.543608 0.250976 -0.800938 -0.543608 0.250976 -0.800938 
-0.362013 0.398674 0.842618 -0.362013 0.398674 0.842618 -0.362013 0.398674 0.842618 
-0.390231 0.414178 0.822299 -0.390231 0.414178 0.822299 -0.390231 0.414178 0.822299 
0.315202 -0.0993562 -0.943809 0.315202 -0.0993562 -0.943809 0.315202 -0.0993562 -0.943809 
-0.305337 0.274252 0.911896 -0.305337 0.274252 0.911896 -0.305337 0.274252 0.911896 
-0.179756 0.323182 0.929108 -0.179756 0.323182 0.929108 -0.179756 0.323182 0.929108 
0.295722 -0.11386 -0.948464 0.295722 -0.11386 -0.948464 0.295722 -0.11386 -0.948464 
0.430617 -0.26509 -0.862726 0.430617 -0.26509 -0.862726 0.430617 -0.26509 -0.862726 
0.70399 -0.338852 -0.624162 0.70399 -0.338852 -0.624162 0.70399 -0.338852 -0.624162 
0.587622 -0.260732 0.765976 0.587622 -0.260732 0.765976 0.587622 -0.260732 0.765976 
0.855782 -0.51166 -0.0764216 0.855782 -0.51166 -0.0764216 0.855782 -0.51166 -0.0764216 
0.654171 -0.39112 0.647368 0.654171 -0.39112 0.647368 0.654171 -0.39112 0.647368 
-0.689145 0.407654 -0.599081 -0.689145 0.407654 -0.599081 -0.689145 0.407654 -0.599081 
-0.860652 0.509107 -0.00944348 -0.860652 0.509107 -0.00944348 -0.860652 0.509107 -0.00944348 
-0.176471 0.0787715 -0.981149 -0.176471 0.0787715 -0.981149 -0.176471 0.0787715 -0.981149 
-0.324249 0.444564 0.835001 -0.324249 0.444564 0.835001 -0.324249 0.444564 0.835001 
0.0496212 0.0799289 -0.995565 0.0496212 0.0799289 -0.995565 0.0496212 0.0799289 -0.995565 
0.0880249 0.137447 -0.98659 0.0880249 0.137447 -0.98659 0.0880249 0.137447 -0.98659 
-0.364318 0.483862 0.795707 -0.364318 0.483862 0.795707 -0.364318 0.483862 0.795707 
0.296442 -0.0902736 -0.950775 0.296442 -0.0902736 -0.950775 0.296442 -0.0902736 -0.950775 
0.738808 -0.531888 -0.413833 0.738808 -0.531888 -0.413833 0.738808 -0.531888 -0.413833 
0.786972 -0.526831 -0.32113 0.786972 -0.526831 -0.32113 0.786972 -0.526831 -0.32113 
0.820173 -0.549057 0.160789 0.820173 -0.549057 0.160789 0.820173 -0.549057 0.160789 
-0.618543 0.73426 0.279762 -0.618543 0.73426 0.279762 -0.618543 0.73426 0.279762 
-0.54011 0.84145 -0.0156081 -0.54011 0.84145 -0.0156081 -0.54011 0.84145 -0.0156081 
-0.413139 0.64364 0.644238 -0.413139 0.64364 0.644238 -0.413139 0.64364 0.644238 
-0.255534 0.381284 -0.88844 -0.255534 0.381284 -0.88844 -0.255534 0.381284 -0.88844 
-0.432154 0.651986 0.623022 -0.432154 0.651986 0.623022 -0.432154 0.651986 0.623022 
-0.493099 0.416829 -0.763614 -0.493099 0.416829 -0.763614 -0.493099 0.416829 -0.763614 
-0.17663 0.310649 0.93397 -0.17663 0.310649 0.93397 -0.17663 0.310649 0.93397 
0.374634 -0.363964 -0.852748 0.374634 -0.363964 -0.852748 0.374634 -0.363964 -0.852748 
0.142697 0.083988 0.986196 0.142697 0.083988 0.986196 0.142697 0.083988 0.986196 
0.550677 -0.483392 -0.680505 0.550677 -0.483392 -0.680505 0.550677 -0.483392 -0.680505 
0.587505 -0.261444 0.765823 0.587505 -0.261444 0.765823 0.587505 -0.261444 0.765823 
0.580695 -0.484756 -0.654068 0.580695 -0.484756 -0.654068 0.580695 -0.484756 -0.654068 
0.803756 -0.109541 0.584788 0.803756 -0.109541 0.584788 0.803756 -0.109541 0.584788 
-0.629948 0.747799 -0.209671 -0.629948 0.747799 -0.209671 -0.629948 0.747799 -0.209671 
-0.530644 0.791775 -0.302505 -0.530644 0.791775 -0.302505 -0.530644 0.791775 -0.302505 
-0.216468 0.912313 0.347602 -0.216468 0.912313 0.347602 -0.216468 0.912313 0.347602 
-0.236401 0.919511 0.31403 -0.236401 0.919511 0.31403 -0.236401 0.919511 0.31403 
-0.182745 0.710809 0.679232 -0.182745 0.710809 0.679232 -0.182745 0.710809 0.679232 
-0.0791305 0.71969 -0.689771 -0.0791305 0.71969 -0.689771 -0.0791305 0.71969 -0.689771 
-0.352397 0.772569 0.52816 -0.352397 0.772569 0.52816 -0.352397 0.772569 0.52816 
-0.313943 0.715496 0.624104 -0.313943 0.715496 0.624104 -0.313943 0.715496 0.624104 
0.124327 0.290801 -0.948672 0.124327 0.290801 -0.948672 0.124327 0.290801 -0.948672 
0.113854 0.28622 -0.951376 0.113854 0.28622 -0.951376 0.113854 0.28622 -0.951376 
0.105347 0.291634 -0.950711 0.105347 0.291634 -0.950711 0.105347 0.291634 -0.950711 
0.178699 -0.154359 -0.97172 0.178699 -0.154359 -0.97172 0.178699 -0.154359 -0.97172 
0.229699 -0.170038 -0.958293 0.229699 -0.170038 -0.958293 0.229699 -0.170038 -0.958293 
0.482811 -0.415455 -0.770903 0.482811 -0.415455 -0.770903 0.482811 -0.415455 -0.770903 
0.158049 0.11581 0.980616 0.158049 0.11581 0.980616 0.158049 0.11581 0.980616 
0.35528 0.0420689 0.933813 0.35528 0.0420689 0.933813 0.35528 0.0420689 0.933813 
0.808338 0.0264953 0.588122 0.808338 0.0264953 0.588122 0.808338 0.0264953 0.588122 
-0.230599 0.97187 0.0478719 -0.230599 0.97187 0.0478719 -0.230599 0.97187 0.0478719 
-0.00699869 0.98415 -0.177198 -0.00699869 0.98415 -0.177198 -0.00699869 0.98415 -0.177198 
-0.234621 0.774102 -0.58798 -0.234621 0.774102 -0.58798 -0.234621 0.774102 -0.58798 
-0.275705 0.909656 0.310664 -0.275705 0.909656 0.310664 -0.275705 0.909656 0.310664 
-0.0497126 0.649516 -0.758721 -0.0497126 0.649516 -0.758721 -0.0497126 0.649516 -0.758721 
-0.411588 0.676619 0.610559 -0.411588 0.676619 0.610559 -0.411588 0.676619 0.610559 
-0.308992 0.507959 0.804054 -0.308992 0.507959 0.804054 -0.308992 0.507959 0.804054 
-0.416762 0.554577 0.720245 -0.416762 0.554577 0.720245 -0.416762 0.554577 0.720245 
0.0748584 0.236265 0.968801 0.0748584 0.236265 0.968801 0.0748584 0.236265 0.968801 
0.578874 -0.240398 0.779175 0.578874 -0.240398 0.779175 0.578874 -0.240398 0.779175 
0.894929 -0.371651 -0.246938 0.894929 -0.371651 -0.246938 0.894929 -0.371651 -0.246938 
0.803111 -0.461369 -0.37703 0.803111 -0.461369 -0.37703 0.803111 -0.461369 -0.37703 
0.793998 -0.601291 -0.0895352 0.793998 -0.601291 -0.0895352 0.793998 -0.601291 -0.0895352 
-0.36273 0.91459 -0.178749 -0.36273 0.91459 -0.178749 -0.36273 0.91459 -0.178749 
-0.333642 0.841248 0.425422 -0.333642 0.841248 0.425422 -0.333642 0.841248 0.425422 
-0.469404 0.863621 0.1839 -0.469404 0.863621 0.1839 -0.469404 0.863621 0.1839 
-0.395002 0.726735 0.561987 -0.395002 0.726735 0.561987 -0.395002 0.726735 0.561987 
-0.45844 0.519804 -0.720858 -0.45844 0.519804 -0.720858 -0.45844 0.519804 -0.720858 
-0.237607 0.406585 0.882174 -0.237607 0.406585 0.882174 -0.237607 0.406585 0.882174 
0.253101 -0.291561 -0.92246 0.253101 -0.291561 -0.92246 0.253101 -0.291561 -0.92246 
0.069029 0.224894 0.971935 0.069029 0.224894 0.971935 0.069029 0.224894 0.971935 
0.596352 0.00607197 0.8027 0.596352 0.00607197 0.8027 0.596352 0.00607197 0.8027 
0.602612 -0.436118 -0.668326 0.602612 -0.436118 -0.668326 0.602612 -0.436118 -0.668326 
0.908308 -0.245117 0.338962 0.908308 -0.245117 0.338962 0.908308 -0.245117 0.338962 
-0.609112 0.690643 -0.389865 -0.609112 0.690643 -0.389865 -0.609112 0.690643 -0.389865 
-0.039313 0.00663884 -0.999205 -0.039313 0.00663884 -0.999205 -0.039313 0.00663884 -0.999205 
-0.427103 0.515373 -0.74295 -0.427103 0.515373 -0.74295 -0.427103 0.515373 -0.74295 
-0.39628 0.443662 0.80382 -0.39628 0.443662 0.80382 -0.39628 0.443662 0.80382 
0.14151 -0.0768526 -0.986949 0.14151 -0.0768526 -0.986949 0.14151 -0.0768526 -0.986949 
0.559959 -0.393061 -0.729349 0.559959 -0.393061 -0.729349 0.559959 -0.393061 -0.729349 
0.533386 -0.386018 -0.752655 0.533386 -0.386018 -0.752655 0.533386 -0.386018 -0.752655 
0.360348 -0.0972439 0.927736 0.360348 -0.0972439 0.927736 0.360348 -0.0972439 0.927736 
-0.618064 0.61103 -0.49461 -0.618064 0.61103 -0.49461 -0.618064 0.61103 -0.49461 
-0.641734 0.634432 0.430898 -0.641734 0.634432 0.430898 -0.641734 0.634432 0.430898 
-0.622206 0.529902 0.57625 -0.622206 0.529902 0.57625 -0.622206 0.529902 0.57625 
-0.0946661 -0.0889441 -0.991528 -0.0946661 -0.0889441 -0.991528 -0.0946661 -0.0889441 -0.991528 
0.0304131 -0.120278 -0.992274 0.0304131 -0.120278 -0.992274 0.0304131 -0.120278 -0.992274 
0.26562 -0.290548 -0.919254 0.26562 -0.290548 -0.919254 0.26562 -0.290548 -0.919254 
0.441983 -0.330536 -0.833905 0.441983 -0.330536 -0.833905 0.441983 -0.330536 -0.833905 
0.811666 -0.454344 -0.36711 0.811666 -0.454344 -0.36711 0.811666 -0.454344 -0.36711 
0.915171 -0.27552 0.294195 0.915171 -0.27552 0.294195 0.915171 -0.27552 0.294195 
0.892971 -0.268836 0.361011 0.892971 -0.268836 0.361011 0.892971 -0.268836 0.361011 
-0.772716 0.581466 -0.254574 -0.772716 0.581466 -0.254574 -0.772716 0.581466 -0.254574 
-0.39614 0.298094 -0.868455 -0.39614 0.298094 -0.868455 -0.39614 0.298094 -0.868455 
-0.679241 0.637877 0.362966 -0.679241 0.637877 0.362966 -0.679241 0.637877 0.362966 
-0.241626 0.369921 0.897093 -0.241626 0.369921 0.897093 -0.241626 0.369921 0.897093 
0.0388342 0.2671 0.962886 0.0388342 0.2671 0.962886 0.0388342 0.2671 0.962886 
-0.402532 0.288987 -0.868594 -0.402532 0.288987 -0.868594 -0.402532 0.288987 -0.868594 
-0.463359 0.444479 0.76664 -0.463359 0.444479 0.76664 -0.463359 0.444479 0.76664 
-0.256432 0.36518 0.894922 -0.256432 0.36518 0.894922 -0.256432 0.36518 0.894922 
0.456578 0.0743613 0.88657 0.456578 0.0743613 0.88657 0.456578 0.0743613 0.88657 