# vtk DataFile Version 4.2
3D Slicer output. SPACE=LPS
ASCII
DATASET POLYDATA
POINTS 2112 double
3.8616566658 -5.471031189 0.41222667694 6.7452263832 -5.9786791801 2.4092092514 2.5920920372 -3.3976049423 1.4107179642 
3.8616566658 -5.471031189 0.41222667694 5.7840361595 -5.3636097908 -0.58626365662 6.7452263832 -6.09745121 0.41222667694 
3.8616566658 -5.471031189 0.41222667694 6.7452263832 -6.09745121 0.41222667694 7.7064156532 -6.3053498268 1.4107179642 
7.7064156532 -6.3053498268 1.4107179642 6.7452263832 -5.9786791801 2.4092092514 3.8616566658 -5.471031189 0.41222667694 
7.7064156532 -6.3053498268 1.4107179642 8.6676063538 -6.2270488739 2.4092092514 6.7452263832 -5.9786791801 2.4092092514 
6.7452263832 -6.09745121 0.41222667694 11.551174164 -4.8161678314 1.4107179642 7.7064156532 -6.3053498268 1.4107179642 
11.551174164 -4.8161678314 1.4107179642 8.6676063538 -6.2270488739 2.4092092514 7.7064156532 -6.3053498268 1.4107179642 
6.7452263832 -5.9786791801 2.4092092514 8.6676063538 -6.2270488739 2.4092092514 10.589984894 -4.5992870331 4.4061899185 
11.551174164 -4.8161678314 1.4107179642 11.551174164 -5.1708474159 3.407699585 8.6676063538 -6.2270488739 2.4092092514 
8.6676063538 -6.2270488739 2.4092092514 11.551174164 -5.1708474159 3.407699585 10.589984894 -4.5992870331 4.4061899185 
3.8616566658 -5.471031189 0.41222667694 2.5601549149 -4.366871357 0.41222667694 2.9004664421 -4.366871357 -0.7918586731 
3.8616566658 -5.471031189 0.41222667694 2.5920920372 -3.3976049423 1.4107179642 2.5601549149 -4.366871357 0.41222667694 
2.9004664421 -4.366871357 -0.7918586731 5.7840361595 -4.366871357 -1.3607416153 5.7840361595 -5.3636097908 -0.58626365662 
5.7840361595 -5.3636097908 -0.58626365662 3.8616566658 -5.471031189 0.41222667694 2.9004664421 -4.366871357 -0.7918586731 
2.5920920372 -3.3976049423 1.4107179642 6.7452263832 -5.9786791801 2.4092092514 5.7840361595 -4.366871357 3.0848617554 
6.7452263832 -6.09745121 0.41222667694 5.7840361595 -5.3636097908 -0.58626365662 8.6676063538 -3.3976049423 -1.4880933762 
10.589984894 -4.5992870331 4.4061899185 5.7840361595 -4.366871357 3.0848617554 6.7452263832 -5.9786791801 2.4092092514 
8.6676063538 -3.3976049423 -1.4880933762 11.551174164 -4.8161678314 1.4107179642 6.7452263832 -6.09745121 0.41222667694 
11.551174164 -4.8161678314 1.4107179642 13.473554611 -3.8815927505 2.4092092514 11.551174164 -5.1708474159 3.407699585 
13.473554611 -3.8815927505 2.4092092514 13.473554611 -3.9686203003 3.407699585 11.551174164 -5.1708474159 3.407699585 
13.473554611 -3.9686203003 3.407699585 15.395935059 -2.1763305664 4.4061899185 10.589984894 -4.5992870331 4.4061899185 
13.473554611 -3.9686203003 3.407699585 10.589984894 -4.5992870331 4.4061899185 11.551174164 -5.1708474159 3.407699585 
1.9392766953 -2.4283390045 -1.5409631729 2.9004664421 -4.366871357 -0.7918586731 2.5601549149 -4.366871357 0.41222667694 
2.9004664421 -4.366871357 -0.7918586731 3.8616566658 -2.4283390045 -2.1268215179 5.7840361595 -4.366871357 -1.3607416153 
8.6676063538 -3.3976049423 -1.4880933762 5.7840361595 -5.3636097908 -0.58626365662 5.7840361595 -4.366871357 -1.3607416153 
5.7840361595 -4.366871357 3.0848617554 10.589984894 -4.5992870331 4.4061899185 9.6287956238 -2.4283390045 4.9261655807 
15.395935059 -2.1763305664 4.4061899185 14.434743881 -1.459072113 5.3619165421 10.589984894 -4.5992870331 4.4061899185 
11.551174164 -4.8161678314 1.4107179642 14.434743881 -2.5159349442 1.4107179642 13.473554611 -3.8815927505 2.4092092514 
3.8616566658 -2.4283390045 -2.1268215179 2.9004664421 -4.366871357 -0.7918586731 1.9392766953 -2.4283390045 -1.5409631729 
1.9392766953 -0.48980617523 1.7850265503 2.5920920372 -3.3976049423 1.4107179642 5.7840361595 -2.4283390045 3.5839357376 
5.7840361595 -2.4283390045 3.5839357376 2.5920920372 -3.3976049423 1.4107179642 5.7840361595 -4.366871357 3.0848617554 
5.7840361595 -4.366871357 3.0848617554 9.6287956238 -2.4283390045 4.9261655807 5.7840361595 -2.4283390045 3.5839357376 
12.512365341 -0.48980617523 -1.5721025467 11.551174164 -4.8161678314 1.4107179642 8.6676063538 -3.3976049423 -1.4880933762 
12.512365341 -0.48980617523 -1.5721025467 17.318313599 0.96470928192 0.41222667694 14.434743881 -2.5159349442 1.4107179642 
11.551174164 -4.8161678314 1.4107179642 12.512365341 -0.48980617523 -1.5721025467 14.434743881 -2.5159349442 1.4107179642 
16.357124329 -1.4880056381 2.4092092514 13.473554611 -3.8815927505 2.4092092514 14.434743881 -2.5159349442 1.4107179642 
16.357124329 -1.4880056381 2.4092092514 13.473554611 -3.9686203003 3.407699585 13.473554611 -3.8815927505 2.4092092514 
0.5769739151 -0.48980617523 -0.58626365662 2.5601549149 -4.366871357 0.41222667694 0.39041376114 0.47945976257 0.41222667694 
2.5601549149 -4.366871357 0.41222667694 0.5769739151 -0.48980617523 -0.58626365662 1.9392766953 -2.4283390045 -1.5409631729 
2.5601549149 -4.366871357 0.41222667694 2.5920920372 -3.3976049423 1.4107179642 0.39041376114 0.47945976257 0.41222667694 
3.8616566658 -2.4283390045 -2.1268215179 1.9392766953 -2.4283390045 -1.5409631729 1.9392766953 -0.48980617523 -1.965303421 
6.7452263832 0.47945976257 3.9221448898 5.7840361595 -2.4283390045 3.5839357376 9.6287956238 -2.4283390045 4.9261655807 
17.318313599 3.3872594833 -1.3239040375 17.318313599 0.96470928192 0.41222667694 12.512365341 -0.48980617523 -1.5721025467 
9.6287956238 -2.4283390045 4.9261655807 10.589984894 -4.5992870331 4.4061899185 14.434743881 -1.459072113 5.3619165421 
15.395935059 -2.1763305664 4.4061899185 17.228210449 -0.48980617523 4.4061899185 14.434743881 -1.459072113 5.3619165421 
14.434743881 -2.5159349442 1.4107179642 17.318313599 0.96470928192 0.41222667694 17.318313599 0.018307685852 1.4107179642 
17.318313599 0.018307685852 1.4107179642 16.357124329 -1.4880056381 2.4092092514 14.434743881 -2.5159349442 1.4107179642 
13.473554611 -3.9686203003 3.407699585 16.357124329 -1.4880056381 2.4092092514 16.357124329 -1.7176151276 3.407699585 
16.357124329 -1.7176151276 3.407699585 15.395935059 -2.1763305664 4.4061899185 13.473554611 -3.9686203003 3.407699585 
0.5769739151 -0.48980617523 -0.58626365662 1.9392766953 -0.48980617523 -1.965303421 1.9392766953 -2.4283390045 -1.5409631729 
1.9392766953 -0.48980617523 1.7850265503 0.39041376114 0.47945976257 0.41222667694 2.5920920372 -3.3976049423 1.4107179642 
5.7840361595 -2.4283390045 3.5839357376 6.7452263832 0.47945976257 3.9221448898 1.9392766953 -0.48980617523 1.7850265503 
5.7840361595 -4.366871357 -1.3607416153 3.8616566658 -2.4283390045 -2.1268215179 8.6676063538 0.47945976257 -3.0829954147 
8.6676063538 -3.3976049423 -1.4880933762 5.7840361595 -4.366871357 -1.3607416153 8.6676063538 0.47945976257 -3.0829954147 
10.589984894 1.4487266541 4.8645048141 6.7452263832 0.47945976257 3.9221448898 9.6287956238 -2.4283390045 4.9261655807 
12.512365341 -0.48980617523 -1.5721025467 8.6676063538 -3.3976049423 -1.4880933762 8.6676063538 0.47945976257 -3.0829954147 
9.6287956238 -2.4283390045 4.9261655807 14.434743881 -1.459072113 5.3619165421 13.473554611 0.47945976257 5.5714387894 
16.357124329 -1.7176151276 3.407699585 17.228210449 -0.48980617523 4.4061899185 15.395935059 -2.1763305664 4.4061899185 
16.357124329 -1.7176151276 3.407699585 16.357124329 -1.4880056381 2.4092092514 19.240694046 1.5473251343 2.4092092514 
19.141834259 1.4487266541 3.407699585 16.357124329 -1.7176151276 3.407699585 19.240694046 1.5473251343 2.4092092514 
16.357124329 -1.7176151276 3.407699585 19.141834259 1.4487266541 3.407699585 17.228210449 -0.48980617523 4.4061899185 
0.80223226547 1.4487266541 -0.58626365662 1.9392766953 1.4487266541 -1.9129781723 1.9392766953 -0.48980617523 -1.965303421 
1.9392766953 -0.48980617523 -1.965303421 0.5769739151 -0.48980617523 -0.58626365662 0.80223226547 1.4487266541 -0.58626365662 
9.6287956238 -2.4283390045 4.9261655807 13.473554611 0.47945976257 5.5714387894 10.589984894 1.4487266541 4.8645048141 
14.434743881 -1.459072113 5.3619165421 17.228210449 -0.48980617523 4.4061899185 16.357124329 0.47945976257 5.3030958176 
17.228210449 -0.48980617523 4.4061899185 18.444452286 1.4487266541 4.4061899185 16.357124329 0.47945976257 5.3030958176 
17.318313599 0.018307685852 1.4107179642 19.240694046 1.5473251343 2.4092092514 16.357124329 -1.4880056381 2.4092092514 
19.141834259 1.4487266541 3.407699585 18.444452286 1.4487266541 4.4061899185 17.228210449 -0.48980617523 4.4061899185 
0.5769739151 -0.48980617523 -0.58626365662 0.39041376114 0.47945976257 0.41222667694 0.80223226547 1.4487266541 -0.58626365662 
1.9392766953 2.4179925919 1.5898237228 0.39041376114 0.47945976257 0.41222667694 1.9392766953 -0.48980617523 1.7850265503 
5.7840361595 2.4179925919 -3.370323658 1.9392766953 -0.48980617523 -1.965303421 1.9392766953 1.4487266541 -1.9129781723 
6.7452263832 0.47945976257 3.9221448898 4.8228459358 2.4179925919 2.7761726379 1.9392766953 -0.48980617523 1.7850265503 
4.8228459358 2.4179925919 2.7761726379 1.9392766953 2.4179925919 1.5898237228 1.9392766953 -0.48980617523 1.7850265503 
3.8616566658 -2.4283390045 -2.1268215179 1.9392766953 -0.48980617523 -1.965303421 5.7840361595 2.4179925919 -3.370323658 
8.6676063538 0.47945976257 -3.0829954147 3.8616566658 -2.4283390045 -2.1268215179 5.7840361595 2.4179925919 -3.370323658 
12.512365341 2.4179925919 -2.847849369 12.512365341 -0.48980617523 -1.5721025467 8.6676063538 0.47945976257 -3.0829954147 
14.434743881 -1.459072113 5.3619165421 16.357124329 0.47945976257 5.3030958176 13.473554611 0.47945976257 5.5714387894 
0.80223226547 1.4487266541 -0.58626365662 0.39041376114 0.47945976257 0.41222667694 1.4717154503 3.3872594833 0.41222667694 
0.39041376114 0.47945976257 0.41222667694 1.9392766953 2.4179925919 1.5898237228 1.4717154503 3.3872594833 0.41222667694 
6.7452263832 0.47945976257 3.9221448898 5.7840361595 3.3872594833 2.7754325867 4.8228459358 2.4179925919 2.7761726379 
8.6676063538 0.47945976257 -3.0829954147 5.7840361595 2.4179925919 -3.370323658 6.7452263832 4.3565254211 -3.7162027359 
[...]
CELL_DATA 704
FIELD FieldData 1
GroupIds 1 704 float
0 0 0 0 0 0 0 0 0 
0 0 0 0 0 0 0 0 0 
0 0 0 0 0 0 0 0 0 
0 0 0 0 0 0 0 0 0 
0 0 0 0 0 0 0 0 0 
0 0 0 0 0 0 0 0 0 
0 0 0 0 0 0 0 0 0 
0 0 0 0 0 0 0 0 0 
0 0 0 0 0 0 0 0 0 
0 0 0 0 0 0 0 0 0 
0 0 0 0 0 0 0 0 0 
0 0 0 0 0 0 0 0 0 
0 0 0 0 0 0 0 0 0 
0 0 0 0 0 0 0 0 0 
0 0 0 0 0 0 0 0 0 
0 0 0 0 0 0 0 0 0 
0 0 0 0 0 0 0 0 0 
0 0 0 0 0 0 0 0 0 
0 0 0 0 0 0 0 0 0 
0 0 0 0 0 0 0 0 0 
0 0 0 0 0 0 0 0 0 
0 0 0 0 0 0 0 0 0 
0 0 0 0 0 0 0 0 0 
0 0 0 0 0 0 0 0 0 
0 0 0 0 0 0 0 0 0 
0 0 0 0 0 0 0 0 0 
0 0 0 0 0 0 0 0 0 
0 0 0 0 0 0 0 0 0 
0 0 0 0 0 0 0 0 0 
0 0 0 0 0 0 0 0 0 
0 0 0 0 0 0 0 0 0 
0 0 0 0 0 0 0 0 0 
0 0 0 0 0 0 0 0 0 
0 0 0 0 0 0 0 0 0 
0 0 0 0 0 0 0 0 0 
0 0 0 0 0 0 0 0 0 
0 0 0 0 0 0 0 0 0 
0 0 0 0 0 0 0 0 0 
0 0 0 0 0 0 0 0 0 
0 0 0 0 0 0 0 0 0 
0 0 0 0 0 0 0 0 0 
0 0 0 0 0 0 0 0 0 
0 0 0 0 0 0 0 0 0 
0 0 0 0 0 0 0 0 0 
0 0 0 0 0 0 0 0 0 
0 0 0 0 0 0 0 0 0 
0 0 0 0 0 0 0 0 0 
0 0 0 0 0 0 0 0 0 
0 0 0 0 0 0 0 0 0 
0 0 0 0 0 0 0 0 0 
0 0 0 0 0 0 0 0 0 
0 0 0 0 0 0 0 0 0 
0 0 0 0 0 0 0 0 0 
0 0 0 0 0 0 0 0 0 
0 0 0 0 0 0 0 0 0 
0 0 0 0 0 0 0 0 0 
0 0 0 0 0 0 0 0 0 
0 0 0 0 0 0 0 0 0 
0 0 0 0 0 0 0 0 0 
0 0 0 0 0 0 0 0 0 
0 0 0 0 0 0 0 0 0 
0 0 0 0 0 0 0 0 0 
0 0 0 0 0 0 0 0 0 
0 0 0 0 0 0 0 0 0 
0 0 0 0 0 0 0 0 0 
0 0 0 0 0 0 0 0 0 
0 0 0 0 0 0 0 0 0 
0 0 0 0 0 0 0 0 0 
0 0 0 0 0 0 0 0 0 
0 0 0 0 0 0 0 0 0 
0 0 0 0 0 0 0 0 0 
0 0 0 0 0 0 0 0 0 
0 0 0 0 0 0 0 0 0 
0 0 0 0 0 0 0 0 0 
0 0 0 0 0 0 0 0 0 
0 0 0 0 0 0 0 0 0 
0 0 0 0 0 0 0 0 0 
0 0 0 0 0 0 0 0 0 
0 0 
POINT_DATA 2112
NORMALS Normals float
-0.521657 -0.607753 0.598758 -0.521657 -0.607753 0.598758 -0.521657 -0.607753 0.598758 
-0.188818 -0.869175 -0.457037 -0.188818 -0.869175 -0.457037 -0.188818 -0.869175 -0.457037 
-0.212286 -0.977207 0.000888562 -0.212286 -0.977207 0.000888562 -0.212286 -0.977207 0.000888562 
-0.233832 -0.967954 0.0915836 -0.233832 -0.967954 0.0915836 -0.233832 -0.967954 0.0915836 
-0.125619 -0.972288 0.197172 -0.125619 -0.972288 0.197172 -0.125619 -0.972288 0.197172 
0.31756 -0.819874 -0.476405 0.31756 -0.819874 -0.476405 0.31756 -0.819874 -0.476405 
0.348292 -0.899218 -0.264765 0.348292 -0.899218 -0.264765 0.348292 -0.899218 -0.264765 
-0.0937476 -0.725606 0.681695 -0.0937476 -0.725606 0.681695 -0.0937476 -0.725606 0.681695 
0.388166 -0.907389 -0.161159 0.388166 -0.907389 -0.161159 0.388166 -0.907389 -0.161159 
0.103017 -0.817259 0.566988 0.103017 -0.817259 0.566988 0.103017 -0.817259 0.566988 
-0.636378 -0.750115 -0.17986 -0.636378 -0.750115 -0.17986 -0.636378 -0.750115 -0.17986 
-0.51483 -0.606844 0.605549 -0.51483 -0.606844 0.605549 -0.51483 -0.606844 0.605549 
-0.153928 -0.606251 -0.780234 -0.153928 -0.606251 -0.780234 -0.153928 -0.606251 -0.780234 
-0.238681 -0.803113 -0.545931 -0.238681 -0.803113 -0.545931 -0.238681 -0.803113 -0.545931 
-0.510325 -0.573106 0.641185 -0.510325 -0.573106 0.641185 -0.510325 -0.573106 0.641185 
0.230851 -0.664581 -0.710662 0.230851 -0.664581 -0.710662 0.230851 -0.664581 -0.710662 
-0.25218 -0.498149 0.82961 -0.25218 -0.498149 0.82961 -0.25218 -0.498149 0.82961 
0.318811 -0.68678 -0.653218 0.318811 -0.68678 -0.653218 0.318811 -0.68678 -0.653218 
0.49487 -0.855577 -0.151957 0.49487 -0.855577 -0.151957 0.49487 -0.855577 -0.151957 
0.528792 -0.845546 -0.0736971 0.528792 -0.845546 -0.0736971 0.528792 -0.845546 -0.0736971 
0.36255 -0.719121 0.592809 0.36255 -0.719121 0.592809 0.36255 -0.719121 0.592809 
0.375728 -0.600795 0.705602 0.375728 -0.600795 0.705602 0.375728 -0.600795 0.705602 
-0.831612 -0.503167 -0.235039 -0.831612 -0.503167 -0.235039 -0.831612 -0.503167 -0.235039 
-0.167455 -0.501494 -0.848801 -0.167455 -0.501494 -0.848801 -0.167455 -0.501494 -0.848801 
0.168903 -0.604749 -0.7783 0.168903 -0.604749 -0.7783 0.168903 -0.604749 -0.7783 
-0.264861 -0.333938 0.904618 -0.264861 -0.333938 0.904618 -0.264861 -0.333938 0.904618 
0.299397 -0.593857 0.74679 0.299397 -0.593857 0.74679 0.299397 -0.593857 0.74679 
0.56461 -0.707795 -0.424549 0.56461 -0.707795 -0.424549 0.56461 -0.707795 -0.424549 
-0.259255 -0.45728 -0.850695 -0.259255 -0.45728 -0.850695 -0.259255 -0.45728 -0.850695 
-0.502334 -0.220405 0.836111 -0.502334 -0.220405 0.836111 -0.502334 -0.220405 0.836111 
-0.504066 -0.215329 0.836392 -0.504066 -0.215329 0.836392 -0.504066 -0.215329 0.836392 
-0.320274 -0.236187 0.91741 -0.320274 -0.236187 0.91741 -0.320274 -0.236187 0.91741 
0.420661 -0.576446 -0.700539 0.420661 -0.576446 -0.700539 0.420661 -0.576446 -0.700539 
0.454909 -0.572545 -0.682092 0.454909 -0.572545 -0.682092 0.454909 -0.572545 -0.682092 
0.455982 -0.571618 -0.682154 0.455982 -0.571618 -0.682154 0.455982 -0.571618 -0.682154 
0.585143 -0.704926 -0.400859 0.585143 -0.704926 -0.400859 0.585143 -0.704926 -0.400859 
0.637273 -0.767727 -0.0669144 0.637273 -0.767727 -0.0669144 0.637273 -0.767727 -0.0669144 
-0.890225 -0.398561 0.220564 -0.890225 -0.398561 0.220564 -0.890225 -0.398561 0.220564 
-0.845714 -0.48813 -0.215632 -0.845714 -0.48813 -0.215632 -0.845714 -0.48813 -0.215632 
-0.839729 -0.375953 0.391809 -0.839729 -0.375953 0.391809 -0.839729 -0.375953 0.391809 
-0.285332 -0.204945 -0.93626 -0.285332 -0.204945 -0.93626 -0.285332 -0.204945 -0.93626 
-0.329599 -0.000860921 0.944121 -0.329599 -0.000860921 0.944121 -0.329599 -0.000860921 0.944121 
0.45567 -0.518523 -0.723532 0.45567 -0.518523 -0.723532 0.45567 -0.518523 -0.723532 
-0.0376424 -0.248494 0.967902 -0.0376424 -0.248494 0.967902 -0.0376424 -0.248494 0.967902 
0.426534 -0.463396 0.776745 0.426534 -0.463396 0.776745 0.426534 -0.463396 0.776745 
0.537773 -0.611902 -0.57998 0.537773 -0.611902 -0.57998 0.537773 -0.611902 -0.57998 
0.590998 -0.672463 -0.445551 0.590998 -0.672463 -0.445551 0.590998 -0.672463 -0.445551 
0.605475 -0.775621 -0.178359 0.605475 -0.775621 -0.178359 0.605475 -0.775621 -0.178359 
0.599655 -0.768167 0.224351 0.599655 -0.768167 0.224351 0.599655 -0.768167 0.224351 
-0.703139 -0.152047 -0.694605 -0.703139 -0.152047 -0.694605 -0.703139 -0.152047 -0.694605 
-0.724504 -0.24556 0.644045 -0.724504 -0.24556 0.644045 -0.724504 -0.24556 0.644045 
-0.411174 0.0299491 0.911065 -0.411174 0.0299491 0.911065 -0.411174 0.0299491 0.911065 
0.0235241 -0.347162 -0.93751 0.0235241 -0.347162 -0.93751 0.0235241 -0.347162 -0.93751 
0.0867062 -0.379004 -0.921324 0.0867062 -0.379004 -0.921324 0.0867062 -0.379004 -0.921324 
-0.256009 0.0787918 0.963458 -0.256009 0.0787918 0.963458 -0.256009 0.0787918 0.963458 
0.25843 -0.367513 -0.893391 0.25843 -0.367513 -0.893391 0.25843 -0.367513 -0.893391 
-0.0618937 -0.137536 0.988561 -0.0618937 -0.137536 0.988561 -0.0618937 -0.137536 0.988561 
0.646148 -0.701988 0.299509 0.646148 -0.701988 0.299509 0.646148 -0.701988 0.299509 
0.716073 -0.680271 -0.156433 0.716073 -0.680271 -0.156433 0.716073 -0.680271 -0.156433 
0.750879 -0.660377 0.00913339 0.750879 -0.660377 0.00913339 0.750879 -0.660377 0.00913339 
0.741825 -0.652415 0.155081 0.741825 -0.652415 0.155081 0.741825 -0.652415 0.155081 
-0.759179 0.0175623 -0.650645 -0.759179 0.0175623 -0.650645 -0.759179 0.0175623 -0.650645 
-0.708992 0.0823852 -0.700387 -0.708992 0.0823852 -0.700387 -0.708992 0.0823852 -0.700387 
-0.21562 0.0689468 0.97404 -0.21562 0.0689468 0.97404 -0.21562 0.0689468 0.97404 
0.415925 -0.387496 0.822711 0.415925 -0.387496 0.822711 0.415925 -0.387496 0.822711 
0.493048 -0.30934 0.81315 0.493048 -0.30934 0.81315 0.493048 -0.30934 0.81315 
0.686173 -0.651866 -0.322859 0.686173 -0.651866 -0.322859 0.686173 -0.651866 -0.322859 
0.729044 -0.457405 0.509191 0.729044 -0.457405 0.509191 0.729044 -0.457405 0.509191 
-0.952041 0.110628 -0.285271 -0.952041 0.110628 -0.285271 -0.952041 0.110628 -0.285271 
-0.644277 0.0512258 0.763075 -0.644277 0.0512258 0.763075 -0.644277 0.0512258 0.763075 
-0.35987 0.0251746 -0.932663 -0.35987 0.0251746 -0.932663 -0.35987 0.0251746 -0.932663 
-0.422601 0.112546 0.899301 -0.422601 0.112546 0.899301 -0.422601 0.112546 0.899301 
-0.379744 0.0619627 0.923014 -0.379744 0.0619627 0.923014 -0.379744 0.0619627 0.923014 
-0.235004 -0.15307 -0.959866 -0.235004 -0.15307 -0.959866 -0.235004 -0.15307 -0.959866 
-0.0559168 -0.227279 -0.972223 -0.0559168 -0.227279 -0.972223 -0.0559168 -0.227279 -0.972223 
0.250344 -0.388973 -0.886582 0.250344 -0.388973 -0.886582 0.250344 -0.388973 -0.886582 
0.0924832 -0.0615576 0.99381 0.0924832 -0.0615576 0.99381 0.0924832 -0.0615576 0.99381 
-0.936204 0.348139 -0.0481791 -0.936204 0.348139 -0.0481791 -0.936204 0.348139 -0.0481791 
-0.782621 0.291028 0.550279 -0.782621 0.291028 0.550279 -0.782621 0.291028 0.550279 
-0.274475 0.272892 0.922059 -0.274475 0.272892 0.922059 -0.274475 0.272892 0.922059 
-0.0150095 -0.168412 -0.985602 -0.0150095 -0.168412 -0.985602 -0.0150095 -0.168412 -0.985602 
0.033128 -0.145077 -0.988866 0.033128 -0.145077 -0.988866 0.033128 -0.145077 -0.988866 
-0.292167 0.265723 0.918711 -0.292167 0.265723 0.918711 -0.292167 0.265723 0.918711 
0.186131 -0.254032 -0.949117 0.186131 -0.254032 -0.949117 0.186131 -0.254032 -0.949117 
-0.14897 0.253854 0.955702 -0.14897 0.253854 0.955702 -0.14897 0.253854 0.955702 
0.348168 -0.376629 -0.858446 0.348168 -0.376629 -0.858446 0.348168 -0.376629 -0.858446 
-0.141599 0.258664 0.955533 -0.141599 0.258664 0.955533 -0.141599 0.258664 0.955533 
0.0910282 0.186788 0.978174 0.0910282 0.186788 0.978174 0.0910282 0.186788 0.978174 
0.42319 -0.0758906 0.902857 0.42319 -0.0758906 0.902857 0.42319 -0.0758906 0.902857 
0.537104 -0.612211 -0.580273 0.537104 -0.612211 -0.580273 0.537104 -0.612211 -0.580273 
0.879057 -0.475026 0.0401271 0.879057 -0.475026 0.0401271 0.879057 -0.475026 0.0401271 
0.749569 -0.405053 0.523526 0.749569 -0.405053 0.523526 0.749569 -0.405053 0.523526 
-0.738141 0.234407 -0.632615 -0.738141 0.234407 -0.632615 -0.738141 0.234407 -0.632615 
-0.752698 0.259687 -0.604986 -0.752698 0.259687 -0.604986 -0.752698 0.259687 -0.604986 
-0.94532 0.326143 0.000638344 -0.94532 0.326143 0.000638344 -0.94532 0.326143 0.000638344 
-0.536502 0.229998 -0.811952 -0.536502 0.229998 -0.811952 -0.536502 0.229998 -0.811952 
-0.35998 0.323774 0.874977 -0.35998 0.323774 0.874977 -0.35998 0.323774 0.874977 
-0.355507 0.00486604 -0.934661 -0.355507 0.00486604 -0.934661 -0.355507 0.00486604 -0.934661 
-0.272588 0.306893 0.911873 -0.272588 0.306893 0.911873 -0.272588 0.306893 0.911873 
-0.258322 0.43188 0.864147 -0.258322 0.43188 0.864147 -0.258322 0.43188 0.864147 
0.0885174 0.185197 0.978707 0.0885174 0.185197 0.978707 0.0885174 0.185197 0.978707 
0.00265737 0.218603 0.97581 0.00265737 0.218603 0.97581 0.00265737 0.218603 0.97581 
0.405299 -0.532524 -0.743069 0.405299 -0.532524 -0.743069 0.405299 -0.532524 -0.743069 
0.647121 -0.633395 -0.424319 0.647121 -0.633395 -0.424319 0.647121 -0.633395 -0.424319 
0.683605 -0.669106 -0.291515 0.683605 -0.669106 -0.291515 0.683605 -0.669106 -0.291515 
0.78823 -0.567166 0.238782 0.78823 -0.567166 0.238782 0.78823 -0.567166 0.238782 
0.741264 -0.533372 0.407482 0.741264 -0.533372 0.407482 0.741264 -0.533372 0.407482 
-0.821954 0.569553 0.000555039 -0.821954 0.569553 0.000555039 -0.821954 0.569553 0.000555039 
-0.417129 0.613473 0.670563 -0.417129 0.613473 0.670563 -0.417129 0.613473 0.670563 
-0.606947 0.581323 0.541921 -0.606947 0.581323 0.541921 -0.606947 0.581323 0.541921 
-0.338639 0.336488 0.878692 -0.338639 0.336488 0.878692 -0.338639 0.336488 0.878692 
-0.347289 0.0048821 -0.937746 -0.347289 0.0048821 -0.937746 -0.347289 0.0048821 -0.937746 
0.243398 -0.22369 -0.94378 0.243398 -0.22369 -0.94378 0.243398 -0.22369 -0.94378 
-0.131407 0.443177 0.886751 -0.131407 0.443177 0.886751 -0.131407 0.443177 0.886751 
0.344822 -0.325456 -0.880441 0.344822 -0.325456 -0.880441 0.344822 -0.325456 -0.880441 
0.474081 -0.0684567 0.877816 0.474081 -0.0684567 0.877816 0.474081 -0.0684567 0.877816 
-0.685806 0.475212 -0.55122 -0.685806 0.475212 -0.55122 -0.685806 0.475212 -0.55122 
-0.774403 0.372054 0.511737 -0.774403 0.372054 0.511737 -0.774403 0.372054 0.511737 
-0.168922 0.579599 0.797202 -0.168922 0.579599 0.797202 -0.168922 0.579599 0.797202 
-0.262247 0.524287 0.810154 -0.262247 0.524287 0.810154 -0.262247 0.524287 0.810154 
0.0334793 0.013125 -0.999353 0.0334793 0.013125 -0.999353 0.0334793 0.013125 -0.999353 
-0.127748 0.450897 0.883387 -0.127748 0.450897 0.883387 -0.127748 0.450897 0.883387 
-0.0527267 0.435771 0.898512 -0.0527267 0.435771 0.898512 -0.0527267 0.435771 0.898512 
0.823771 -0.53343 0.191975 0.823771 -0.53343 0.191975 0.823771 -0.53343 0.191975 
-0.696117 0.472969 -0.540112 -0.696117 0.472969 -0.540112 -0.696117 0.472969 -0.540112 
-0.577693 0.392507 -0.715688 -0.577693 0.392507 -0.715688 -0.577693 0.392507 -0.715688 
-0.755762 0.221276 -0.616328 -0.755762 0.221276 -0.616328 -0.755762 0.221276 -0.616328 
0.0249062 0.370527 -0.928488 0.0249062 0.370527 -0.928488 0.0249062 0.370527 -0.928488 
-0.205024 0.758732 0.618296 -0.205024 0.758732 0.618296 -0.205024 0.758732 0.618296 
-0.381566 0.215927 -0.898768 -0.381566 0.215927 -0.898768 -0.381566 0.215927 -0.898768 
-0.250702 0.549017 0.797326 -0.250702 0.549017 0.797326 -0.250702 0.549017 0.797326 
0.0761277 0.0980892 -0.992262 0.0761277 0.0980892 -0.992262 0.0761277 0.0980892 -0.992262 
0.0852828 0.0980162 -0.991524 0.0852828 0.0980162 -0.991524 0.0852828 0.0980162 -0.991524 
0.218797 -0.105456 -0.970055 0.218797 -0.105456 -0.970055 0.218797 -0.105456 -0.970055 
-0.210034 0.566626 0.796757 -0.210034 0.566626 0.796757 -0.210034 0.566626 0.796757 
0.234535 -0.428761 -0.872443 0.234535 -0.428761 -0.872443 0.234535 -0.428761 -0.872443 
0.431684 0.0658593 0.899618 0.431684 0.0658593 0.899618 0.431684 0.0658593 0.899618 
0.68226 -0.137573 0.718049 0.68226 -0.137573 0.718049 0.68226 -0.137573 0.718049 
0.654764 -0.626589 -0.422694 0.654764 -0.626589 -0.422694 0.654764 -0.626589 -0.422694 
0.828846 -0.536716 -0.157955 0.828846 -0.536716 -0.157955 0.828846 -0.536716 -0.157955 
-0.653517 0.738703 0.165026 -0.653517 0.738703 0.165026 -0.653517 0.738703 0.165026 
-0.662328 0.748663 0.0287312 -0.662328 0.748663 0.0287312 -0.662328 0.748663 0.0287312 
-0.180238 0.902519 0.391118 -0.180238 0.902519 0.391118 -0.180238 0.902519 0.391118 
-0.20136 0.764238 0.612694 -0.20136 0.764238 0.612694 -0.20136 0.764238 0.612694 
-0.109936 0.62885 -0.769715 -0.109936 0.62885 -0.769715 -0.109936 0.62885 -0.769715 
-0.0758483 0.616755 -0.783492 -0.0758483 0.616755 -0.783492 -0.0758483 0.616755 -0.783492 
-0.2882 0.744876 0.601748 -0.2882 0.744876 0.601748 -0.2882 0.744876 0.601748 
0.148473 0.293408 -0.944387 0.148473 0.293408 -0.944387 0.148473 0.293408 -0.944387 
-0.204575 0.629508 0.749579 -0.204575 0.629508 0.749579 -0.204575 0.629508 0.749579 
0.0935244 -0.229286 -0.968856 0.0935244 -0.229286 -0.968856 0.0935244 -0.229286 -0.968856 
0.38596 -0.474681 -0.79102 0.38596 -0.474681 -0.79102 0.38596 -0.474681 -0.79102 
0.311737 0.20771 0.927187 0.311737 0.20771 0.927187 0.311737 0.20771 0.927187 
0.353244 -0.487896 -0.798233 0.353244 -0.487896 -0.798233 0.353244 -0.487896 -0.798233 
0.590784 -0.565362 -0.575622 0.590784 -0.565362 -0.575622 0.590784 -0.565362 -0.575622 
0.797097 -0.575854 -0.181737 0.797097 -0.575854 -0.181737 0.797097 -0.575854 -0.181737 
0.820865 -0.165521 0.546611 0.820865 -0.165521 0.546611 0.820865 -0.165521 0.546611 
-0.343122 0.896643 -0.279818 -0.343122 0.896643 -0.279818 -0.343122 0.896643 -0.279818 
-0.356378 0.931284 0.0755226 -0.356378 0.931284 0.0755226 -0.356378 0.931284 0.0755226 
-0.152961 0.874958 -0.459403 -0.152961 0.874958 -0.459403 -0.152961 0.874958 -0.459403 
-0.127066 0.901143 -0.414482 -0.127066 0.901143 -0.414482 -0.127066 0.901143 -0.414482 
-0.133089 0.943856 0.302362 -0.133089 0.943856 0.302362 -0.133089 0.943856 0.302362 
-0.0870484 0.584704 -0.806563 -0.0870484 0.584704 -0.806563 -0.0870484 0.584704 -0.806563 
-0.320206 0.608886 0.725759 -0.320206 0.608886 0.725759 -0.320206 0.608886 0.725759 
-0.303823 0.096601 -0.947818 -0.303823 0.096601 -0.947818 -0.303823 0.096601 -0.947818 
-0.202358 0.0629419 -0.977287 -0.202358 0.0629419 -0.977287 -0.202358 0.0629419 -0.977287 
0.0402087 -0.204582 -0.978023 0.0402087 -0.204582 -0.978023 0.0402087 -0.204582 -0.978023 
-0.0524337 0.436276 0.898284 -0.0524337 0.436276 0.898284 -0.0524337 0.436276 0.898284 
0.332671 0.164972 0.928501 0.332671 0.164972 0.928501 0.332671 0.164972 0.928501 
0.374179 0.191274 0.907416 0.374179 0.191274 0.907416 0.374179 0.191274 0.907416 
0.8472 -0.280001 0.4515 0.8472 -0.280001 0.4515 0.8472 -0.280001 0.4515 
0.759214 -0.250922 0.600526 0.759214 -0.250922 0.600526 0.759214 -0.250922 0.600526 
-0.135523 0.910311 -0.39111 -0.135523 0.910311 -0.39111 -0.135523 0.910311 -0.39111 
-0.442013 0.896858 -0.0164573 -0.442013 0.896858 -0.0164573 -0.442013 0.896858 -0.0164573 
-0.316418 0.887966 0.33376 -0.316418 0.887966 0.33376 -0.316418 0.887966 0.33376 
-0.407945 0.695255 -0.591778 -0.407945 0.695255 -0.591778 -0.407945 0.695255 -0.591778 
-0.505098 0.860831 0.0620246 -0.505098 0.860831 0.0620246 -0.505098 0.860831 0.0620246 
-0.286091 0.58772 0.756794 -0.286091 0.58772 0.756794 -0.286091 0.58772 0.756794 
-0.0501589 0.436327 0.898389 -0.0501589 0.436327 0.898389 -0.0501589 0.436327 0.898389 
0.430439 -0.326751 -0.841401 0.430439 -0.326751 -0.841401 0.430439 -0.326751 -0.841401 
-0.551507 0.625885 0.55146 -0.551507 0.625885 0.55146 -0.551507 0.625885 0.55146 
-0.420848 0.690781 -0.58797 -0.420848 0.690781 -0.58797 -0.420848 0.690781 -0.58797 
-0.660156 0.749187 0.0539805 -0.660156 0.749187 0.0539805 -0.660156 0.749187 0.0539805 
-0.311571 0.582825 0.750492 -0.311571 0.582825 0.750492 -0.311571 0.582825 0.750492 
0.0402149 -0.20385 -0.978176 0.0402149 -0.20385 -0.978176 0.0402149 -0.20385 -0.978176 
-0.00109205 -0.213807 -0.976875 -0.00109205 -0.213807 -0.976875 -0.00109205 -0.213807 -0.976875 
-0.0859787 0.351757 0.932134 -0.0859787 0.351757 0.932134 -0.0859787 0.351757 0.932134 
0.300427 -0.406408 -0.862888 0.300427 -0.406408 -0.862888 0.300427 -0.406408 -0.862888 
0.381218 -6.75469e-05 0.924485 0.381218 -6.75469e-05 0.924485 0.381218 -6.75469e-05 0.924485 
0.710401 -0.436278 -0.552261 0.710401 -0.436278 -0.552261 0.710401 -0.436278 -0.552261 
0.724379 -0.483077 -0.491844 0.724379 -0.483077 -0.491844 0.724379 -0.483077 -0.491844 
0.810223 -0.540325 -0.227131 0.810223 -0.540325 -0.227131 0.810223 -0.540325 -0.227131 
0.899244 -0.202801 0.387599 0.899244 -0.202801 0.387599 0.899244 -0.202801 0.387599 
-0.669057 0.737786 0.0896364 -0.669057 0.737786 0.0896364 -0.669057 0.737786 0.0896364 
-0.564935 0.233116 -0.791521 -0.564935 0.233116 -0.791521 -0.564935 0.233116 -0.791521 
-0.581384 0.308448 -0.752896 -0.581384 0.308448 -0.752896 -0.581384 0.308448 -0.752896 
-0.20239 -0.0603195 -0.977445 -0.20239 -0.0603195 -0.977445 -0.20239 -0.0603195 -0.977445 
0.308003 0.219314 0.925762 0.308003 0.219314 0.925762 0.308003 0.219314 0.925762 
0.906725 -0.384291 0.173695 0.906725 -0.384291 0.173695 0.906725 -0.384291 0.173695 
-0.656084 0.566249 0.498915 -0.656084 0.566249 0.498915 -0.656084 0.566249 0.498915 
-0.0946954 0.367681 0.925118 -0.0946954 0.367681 0.925118 -0.0946954 0.367681 0.925118 
0.131843 0.0385982 0.990519 0.131843 0.0385982 0.990519 0.131843 0.0385982 0.990519 
0.333844 0.0367042 0.941913 0.333844 0.0367042 0.941913 0.333844 0.0367042 0.941913 
0.711773 -0.434375 -0.551994 0.711773 -0.434375 -0.551994 0.711773 -0.434375 -0.551994 
0.898372 -0.380751 -0.218989 0.898372 -0.380751 -0.218989 0.898372 -0.380751 -0.218989 
0.84326 -0.309701 0.439316 0.84326 -0.309701 0.439316 0.84326 -0.309701 0.439316 
0.770906 -0.283127 0.570564 0.770906 -0.283127 0.570564 0.770906 -0.283127 0.570564 
-0.660931 0.127724 -0.739498 -0.660931 0.127724 -0.739498 -0.660931 0.127724 -0.739498 
-0.869593 0.476429 -0.129706 -0.869593 0.476429 -0.129706 -0.869593 0.476429 -0.129706 
-0.642326 0.554375 0.529231 -0.642326 0.554375 0.529231 -0.642326 0.554375 0.529231 
-0.530366 0.102493 -0.84155 -0.530366 0.102493 -0.84155 -0.530366 0.102493 -0.84155 
-0.203688 -0.0605157 -0.977164 -0.203688 -0.0605157 -0.977164 -0.203688 -0.0605157 -0.977164 