# vtk DataFile Version 4.2
3D Slicer output. SPACE=LPS
ASCII
DATASET POLYDATA
POINTS 2088 double
4.8725175858 -4.7099680901 -0.7541513443 5.8442516327 -5.8411335945 1.227804184 3.9007835388 -5.0034785271 0.23682689667 
3.9007835388 -5.0034785271 0.23682689667 5.8442516327 -5.8411335945 1.227804184 4.3610048294 -5.0952005386 1.227804184 
4.8725175858 -4.7099680901 -0.7541513443 6.8159856796 -5.5920829773 0.23682689667 5.8442516327 -5.8411335945 1.227804184 
4.3610048294 -5.0952005386 1.227804184 5.8442516327 -5.8411335945 1.227804184 6.8159856796 -5.8599882126 2.2187814713 
6.8159856796 -5.8599882126 2.2187814713 6.8159856796 -5.0952005386 3.0757818222 4.3610048294 -5.0952005386 1.227804184 
6.8159856796 -5.5920829773 0.23682689667 6.8159856796 -6.0510492325 1.227804184 5.8442516327 -5.8411335945 1.227804184 
6.8159856796 -6.0510492325 1.227804184 6.8159856796 -5.8599882126 2.2187814713 5.8442516327 -5.8411335945 1.227804184 
6.8159856796 -6.0510492325 1.227804184 8.7594547272 -5.9217615128 2.2187814713 6.8159856796 -5.8599882126 2.2187814713 
8.7594547272 -5.9217615128 2.2187814713 8.7594547272 -5.6559123993 3.2097597122 6.8159856796 -5.8599882126 2.2187814713 
6.8159856796 -5.0952005386 3.0757818222 6.8159856796 -5.8599882126 2.2187814713 8.7594547272 -5.6559123993 3.2097597122 
11.674656868 -4.8698210716 3.2097597122 8.7594547272 -5.6559123993 3.2097597122 8.7594547272 -5.9217615128 2.2187814713 
1.9573149681 -3.3175048828 -0.7541513443 3.9007835388 -5.0034785271 0.23682689667 1.9573149681 -3.5958919525 0.23682689667 
4.3610048294 -5.0952005386 1.227804184 1.9573149681 -3.5958919525 0.23682689667 3.9007835388 -5.0034785271 0.23682689667 
3.9007835388 -5.0034785271 0.23682689667 1.9573149681 -3.3175048828 -0.7541513443 4.8725175858 -4.7099680901 -0.7541513443 
4.8725175858 -4.7099680901 -0.7541513443 4.8725175858 -3.1562986374 -1.710641861 6.8159856796 -5.5920829773 0.23682689667 
4.3610048294 -5.0952005386 1.227804184 6.8159856796 -5.0952005386 3.0757818222 4.477098465 -4.125749588 2.2187814713 
4.477098465 -4.125749588 2.2187814713 6.8159856796 -5.0952005386 3.0757818222 7.7877197266 -4.125749588 4.0585584641 
4.8725175858 -3.1562986374 -1.710641861 8.7594547272 -3.1562986374 -1.2372903824 6.8159856796 -5.5920829773 0.23682689667 
7.7877197266 -4.125749588 4.0585584641 6.8159856796 -5.0952005386 3.0757818222 8.7594547272 -5.6559123993 3.2097597122 
10.702922821 -4.6273655891 4.2007379532 7.7877197266 -4.125749588 4.0585584641 8.7594547272 -5.6559123993 3.2097597122 
7.7877197266 -4.125749588 4.0585584641 10.702922821 -4.6273655891 4.2007379532 10.702922821 -3.1562986374 4.9041929245 
6.8159856796 -5.5920829773 0.23682689667 11.674656868 -3.3452801704 0.23682689667 6.8159856796 -6.0510492325 1.227804184 
6.8159856796 -6.0510492325 1.227804184 11.674656868 -3.3452801704 0.23682689667 8.7594547272 -5.9217615128 2.2187814713 
8.7594547272 -5.9217615128 2.2187814713 11.674656868 -3.3452801704 0.23682689667 14.589859962 -2.7505273819 2.2187814713 
14.589859962 -2.7505273819 2.2187814713 11.674656868 -4.8698210716 3.2097597122 8.7594547272 -5.9217615128 2.2187814713 
11.674656868 -4.8698210716 3.2097597122 10.702922821 -4.6273655891 4.2007379532 8.7594547272 -5.6559123993 3.2097597122 
10.702922821 -4.6273655891 4.2007379532 11.674656868 -4.8698210716 3.2097597122 10.702922821 -3.1562986374 4.9041929245 
14.589859962 -2.7505273819 2.2187814713 15.561593056 -2.1926221848 3.2097597122 11.674656868 -4.8698210716 3.2097597122 
1.9573149681 -3.5958919525 0.23682689667 4.3610048294 -5.0952005386 1.227804184 1.9573149681 -2.1868476868 1.4391031265 
4.3610048294 -5.0952005386 1.227804184 4.477098465 -4.125749588 2.2187814713 1.9573149681 -2.1868476868 1.4391031265 
4.8725175858 -4.7099680901 -0.7541513443 1.9573149681 -3.3175048828 -0.7541513443 4.8725175858 -3.1562986374 -1.710641861 
7.7877197266 -3.1562986374 4.3616533279 4.477098465 -4.125749588 2.2187814713 7.7877197266 -4.125749588 4.0585584641 
11.674656868 -3.3452801704 0.23682689667 6.8159856796 -5.5920829773 0.23682689667 8.7594547272 -3.1562986374 -1.2372903824 
10.702922821 -3.1562986374 4.9041929245 7.7877197266 -3.1562986374 4.3616533279 7.7877197266 -4.125749588 4.0585584641 
14.605051994 -2.1868476868 1.227804184 14.589859962 -2.7505273819 2.2187814713 11.674656868 -3.3452801704 0.23682689667 
15.561593056 -2.1926221848 3.2097597122 13.618124962 -3.1167845726 4.2007379532 11.674656868 -4.8698210716 3.2097597122 
11.674656868 -4.8698210716 3.2097597122 13.618124962 -3.1167845726 4.2007379532 12.646391869 -2.1868476868 5.0567407608 
11.674656868 -4.8698210716 3.2097597122 12.646391869 -2.1868476868 5.0567407608 10.702922821 -3.1562986374 4.9041929245 
1.9573149681 -1.2173967361 -1.792131424 4.8725175858 -3.1562986374 -1.710641861 1.9573149681 -3.3175048828 -0.7541513443 
4.8725175858 -3.1562986374 -1.710641861 7.7877197266 0.72150611877 -3.1430749893 8.7594547272 -3.1562986374 -1.2372903824 
10.702922821 -3.1562986374 4.9041929245 9.7311887741 -2.1868476868 4.9324064255 7.7877197266 -3.1562986374 4.3616533279 
13.618124962 -0.24794578552 -1.1672544479 11.674656868 -3.3452801704 0.23682689667 8.7594547272 -3.1562986374 -1.2372903824 
12.646391869 -2.1868476868 5.0567407608 9.7311887741 -2.1868476868 4.9324064255 10.702922821 -3.1562986374 4.9041929245 
15.561593056 -2.1926221848 3.2097597122 16.53332901 -0.88369655609 4.2007379532 13.618124962 -3.1167845726 4.2007379532 
13.618124962 -3.1167845726 4.2007379532 16.53332901 -0.88369655609 4.2007379532 12.646391869 -2.1868476868 5.0567407608 
0.73743867874 -0.24794578552 -0.7541513443 1.9573149681 -3.5958919525 0.23682689667 0.19692564011 -0.24794578552 0.23682689667 
1.9573149681 -3.5958919525 0.23682689667 1.9573149681 -2.1868476868 1.4391031265 0.19692564011 -0.24794578552 0.23682689667 
1.9573149681 -1.2173967361 -1.792131424 1.9573149681 -3.3175048828 -0.7541513443 0.73743867874 -0.24794578552 -0.7541513443 
1.9573149681 -3.5958919525 0.23682689667 0.73743867874 -0.24794578552 -0.7541513443 1.9573149681 -3.3175048828 -0.7541513443 
4.8725175858 -3.1562986374 -1.710641861 1.9573149681 -1.2173967361 -1.792131424 3.9007835388 -1.2173967361 -2.2344207764 
1.9573149681 -0.24794578552 1.8213300705 1.9573149681 -2.1868476868 1.4391031265 4.477098465 -4.125749588 2.2187814713 
4.477098465 -4.125749588 2.2187814713 7.7877197266 -3.1562986374 4.3616533279 1.9573149681 -0.24794578552 1.8213300705 
7.7877197266 0.72150611877 -3.1430749893 4.8725175858 -3.1562986374 -1.710641861 3.9007835388 -1.2173967361 -2.2344207764 
11.674656868 0.72150611877 -2.4089975357 8.7594547272 -3.1562986374 -1.2372903824 7.7877197266 0.72150611877 -3.1430749893 
9.7311887741 -2.1868476868 4.9324064255 6.8159856796 -0.24794578552 4.0547056198 7.7877197266 -3.1562986374 4.3616533279 
9.7311887741 -2.1868476868 4.9324064255 12.646391869 -2.1868476868 5.0567407608 13.618124962 -0.24794578552 5.2788362503 
13.618124962 -0.24794578552 -1.1672544479 14.605051994 -2.1868476868 1.227804184 11.674656868 -3.3452801704 0.23682689667 
14.605051994 -2.1868476868 1.227804184 17.505062103 0.24178695679 1.227804184 14.589859962 -2.7505273819 2.2187814713 
14.589859962 -2.7505273819 2.2187814713 17.505062103 0.24178695679 1.227804184 15.561593056 -2.1926221848 3.2097597122 
1.9573149681 -1.2173967361 -1.792131424 0.73743867874 -0.24794578552 -0.7541513443 1.9573149681 -0.24794578552 -1.9060239792 
1.9573149681 -2.1868476868 1.4391031265 1.9573149681 -0.24794578552 1.8213300705 0.19692564011 -0.24794578552 0.23682689667 
3.9007835388 -1.2173967361 -2.2344207764 1.9573149681 -1.2173967361 -1.792131424 1.9573149681 -0.24794578552 -1.9060239792 
1.9573149681 -0.24794578552 1.8213300705 7.7877197266 -3.1562986374 4.3616533279 6.8159856796 -0.24794578552 4.0547056198 
10.702922821 0.72150611877 4.9357481003 6.8159856796 -0.24794578552 4.0547056198 9.7311887741 -2.1868476868 4.9324064255 
11.674656868 0.72150611877 -2.4089975357 13.618124962 -0.24794578552 -1.1672544479 8.7594547272 -3.1562986374 -1.2372903824 
17.505062103 0.24178695679 1.227804184 14.605051994 -2.1868476868 1.227804184 13.618124962 -0.24794578552 -1.1672544479 
12.646391869 -2.1868476868 5.0567407608 16.53332901 0.72150611877 4.8327131271 13.618124962 -0.24794578552 5.2788362503 
12.646391869 -2.1868476868 5.0567407608 16.53332901 -0.88369655609 4.2007379532 16.53332901 0.72150611877 4.8327131271 
15.561593056 -2.1926221848 3.2097597122 17.505062103 0.24178695679 1.227804184 18.428535461 0.72150611877 3.2097597122 
18.428535461 0.72150611877 3.2097597122 16.53332901 -0.88369655609 4.2007379532 15.561593056 -2.1926221848 3.2097597122 
0.73743867874 -0.24794578552 -0.7541513443 0.19692564011 -0.24794578552 0.23682689667 0.79156446457 0.72150611877 -0.7541513443 
0.79156446457 0.72150611877 -0.7541513443 1.8677616119 1.6909570694 -1.7451286316 1.9573149681 -0.24794578552 -1.9060239792 
0.73743867874 -0.24794578552 -0.7541513443 0.79156446457 0.72150611877 -0.7541513443 1.9573149681 -0.24794578552 -1.9060239792 
6.8159856796 2.66040802 -3.5108938217 3.9007835388 -1.2173967361 -2.2344207764 1.9573149681 -0.24794578552 -1.9060239792 
3.9007835388 -1.2173967361 -2.2344207764 6.8159856796 2.66040802 -3.5108938217 7.7877197266 0.72150611877 -3.1430749893 
9.7311887741 -2.1868476868 4.9324064255 13.618124962 -0.24794578552 5.2788362503 10.702922821 0.72150611877 4.9357481003 
14.589859962 2.66040802 4.8502454758 10.702922821 0.72150611877 4.9357481003 13.618124962 -0.24794578552 5.2788362503 
15.561593056 1.6909570694 5.0239095688 13.618124962 -0.24794578552 5.2788362503 16.53332901 0.72150611877 4.8327131271 
13.618124962 -0.24794578552 5.2788362503 15.561593056 1.6909570694 5.0239095688 14.589859962 2.66040802 4.8502454758 
17.505062103 0.24178695679 1.227804184 13.618124962 -0.24794578552 -1.1672544479 19.448532104 2.8698139191 0.23682689667 
0.19692564011 -0.24794578552 0.23682689667 1.9573149681 -0.24794578552 1.8213300705 1.9573149681 1.6909570694 1.6848993301 
[...]
CELL_DATA 696
FIELD FieldData 1
GroupIds 1 696 float
0 0 0 0 0 0 0 0 0 
0 0 0 0 0 0 0 0 0 
0 0 0 0 0 0 0 0 0 
0 0 0 0 0 0 0 0 0 
0 0 0 0 0 0 0 0 0 
0 0 0 0 0 0 0 0 0 
0 0 0 0 0 0 0 0 0 
0 0 0 0 0 0 0 0 0 
0 0 0 0 0 0 0 0 0 
0 0 0 0 0 0 0 0 0 
0 0 0 0 0 0 0 0 0 
0 0 0 0 0 0 0 0 0 
0 0 0 0 0 0 0 0 0 
0 0 0 0 0 0 0 0 0 
0 0 0 0 0 0 0 0 0 
0 0 0 0 0 0 0 0 0 
0 0 0 0 0 0 0 0 0 
0 0 0 0 0 0 0 0 0 
0 0 0 0 0 0 0 0 0 
0 0 0 0 0 0 0 0 0 
0 0 0 0 0 0 0 0 0 
0 0 0 0 0 0 0 0 0 
0 0 0 0 0 0 0 0 0 
0 0 0 0 0 0 0 0 0 
0 0 0 0 0 0 0 0 0 
0 0 0 0 0 0 0 0 0 
0 0 0 0 0 0 0 0 0 
0 0 0 0 0 0 0 0 0 
0 0 0 0 0 0 0 0 0 
0 0 0 0 0 0 0 0 0 
0 0 0 0 0 0 0 0 0 
0 0 0 0 0 0 0 0 0 
0 0 0 0 0 0 0 0 0 
0 0 0 0 0 0 0 0 0 
0 0 0 0 0 0 0 0 0 
0 0 0 0 0 0 0 0 0 
0 0 0 0 0 0 0 0 0 
0 0 0 0 0 0 0 0 0 
0 0 0 0 0 0 0 0 0 
0 0 0 0 0 0 0 0 0 
0 0 0 0 0 0 0 0 0 
0 0 0 0 0 0 0 0 0 
0 0 0 0 0 0 0 0 0 
0 0 0 0 0 0 0 0 0 
0 0 0 0 0 0 0 0 0 
0 0 0 0 0 0 0 0 0 
0 0 0 0 0 0 0 0 0 
0 0 0 0 0 0 0 0 0 
0 0 0 0 0 0 0 0 0 
0 0 0 0 0 0 0 0 0 
0 0 0 0 0 0 0 0 0 
0 0 0 0 0 0 0 0 0 
0 0 0 0 0 0 0 0 0 
0 0 0 0 0 0 0 0 0 
0 0 0 0 0 0 0 0 0 
0 0 0 0 0 0 0 0 0 
0 0 0 0 0 0 0 0 0 
0 0 0 0 0 0 0 0 0 
0 0 0 0 0 0 0 0 0 
0 0 0 0 0 0 0 0 0 
0 0 0 0 0 0 0 0 0 
0 0 0 0 0 0 0 0 0 
0 0 0 0 0 0 0 0 0 
0 0 0 0 0 0 0 0 0 
0 0 0 0 0 0 0 0 0 
0 0 0 0 0 0 0 0 0 
0 0 0 0 0 0 0 0 0 
0 0 0 0 0 0 0 0 0 
0 0 0 0 0 0 0 0 0 
0 0 0 0 0 0 0 0 0 
0 0 0 0 0 0 0 0 0 
0 0 0 0 0 0 0 0 0 
0 0 0 0 0 0 0 0 0 
0 0 0 0 0 0 0 0 0 
0 0 0 0 0 0 0 0 0 
0 0 0 0 0 0 0 0 0 
0 0 0 0 0 0 0 0 0 
0 0 0 
POINT_DATA 2088
NORMALS Normals float
-0.165993 -0.889288 -0.426161 -0.165993 -0.889288 -0.426161 -0.165993 -0.889288 -0.426161 
-0.445766 -0.886382 0.124978 -0.445766 -0.886382 0.124978 -0.445766 -0.886382 0.124978 
-0.193254 -0.889919 -0.413155 -0.193254 -0.889919 -0.413155 -0.193254 -0.889919 -0.413155 
-0.413708 -0.822635 0.390022 -0.413708 -0.822635 0.390022 -0.413708 -0.822635 0.390022 
-0.44807 -0.667018 0.595248 -0.44807 -0.667018 0.595248 -0.44807 -0.667018 0.595248 
-0.192358 -0.890458 -0.412411 -0.192358 -0.890458 -0.412411 -0.192358 -0.890458 -0.412411 
-0.207499 -0.960545 0.185194 -0.207499 -0.960545 0.185194 -0.207499 -0.960545 0.185194 
-0.0311951 -0.981439 0.189222 -0.0311951 -0.981439 0.189222 -0.0311951 -0.981439 0.189222 
-0.0306851 -0.965394 0.258986 -0.0306851 -0.965394 0.258986 -0.0306851 -0.965394 0.258986 
-0.252685 -0.721895 0.644219 -0.252685 -0.721895 0.644219 -0.252685 -0.721895 0.644219 
0.252036 -0.934669 0.250743 0.252036 -0.934669 0.250743 0.252036 -0.934669 0.250743 
-0.571961 -0.789712 -0.221847 -0.571961 -0.789712 -0.221847 -0.571961 -0.789712 -0.221847 
-0.575467 -0.794553 0.193712 -0.575467 -0.794553 0.193712 -0.575467 -0.794553 0.193712 
-0.354773 -0.742738 -0.56787 -0.354773 -0.742738 -0.56787 -0.354773 -0.742738 -0.56787 
0.192589 -0.514437 -0.835622 0.192589 -0.514437 -0.835622 0.192589 -0.514437 -0.835622 
-0.482355 -0.597259 0.640793 -0.482355 -0.597259 0.640793 -0.482355 -0.597259 0.640793 
-0.451132 -0.370762 0.811798 -0.451132 -0.370762 0.811798 -0.451132 -0.370762 0.811798 
0.0991644 -0.571924 -0.814291 0.0991644 -0.571924 -0.814291 0.0991644 -0.571924 -0.814291 
-0.220564 -0.576498 0.786767 -0.220564 -0.576498 0.786767 -0.220564 -0.576498 0.786767 
-0.134066 -0.544447 0.828012 -0.134066 -0.544447 0.828012 -0.134066 -0.544447 0.828012 
-0.117414 -0.428422 0.895918 -0.117414 -0.428422 0.895918 -0.117414 -0.428422 0.895918 
0.386928 -0.836726 -0.387526 0.386928 -0.836726 -0.387526 0.386928 -0.836726 -0.387526 
0.324905 -0.779544 -0.535489 0.324905 -0.779544 -0.535489 0.324905 -0.779544 -0.535489 
0.437477 -0.804314 -0.402111 0.437477 -0.804314 -0.402111 0.437477 -0.804314 -0.402111 
0.431914 -0.794086 -0.427643 0.431914 -0.794086 -0.427643 0.431914 -0.794086 -0.427643 
0.233654 -0.8665 0.441117 0.233654 -0.8665 0.441117 0.233654 -0.8665 0.441117 
0.630539 -0.334839 0.700217 0.630539 -0.334839 0.700217 0.630539 -0.334839 0.700217 
0.564823 -0.820048 -0.0921799 0.564823 -0.820048 -0.0921799 0.564823 -0.820048 -0.0921799 
-0.583498 -0.527132 0.617788 -0.583498 -0.527132 0.617788 -0.583498 -0.527132 0.617788 
-0.597508 -0.537086 0.595418 -0.597508 -0.537086 0.595418 -0.597508 -0.537086 0.595418 
-0.242911 -0.508549 -0.826058 -0.242911 -0.508549 -0.826058 -0.242911 -0.508549 -0.826058 
-0.46857 -0.263616 0.843178 -0.46857 -0.263616 0.843178 -0.46857 -0.263616 0.843178 
0.304848 -0.659228 -0.687377 0.304848 -0.659228 -0.687377 0.304848 -0.659228 -0.687377 
-0.17489 -0.293803 0.93973 -0.17489 -0.293803 0.93973 -0.17489 -0.293803 0.93973 
0.454422 -0.777267 -0.435152 0.454422 -0.777267 -0.435152 0.454422 -0.777267 -0.435152 
0.536319 -0.778664 0.325645 0.536319 -0.778664 0.325645 0.536319 -0.778664 0.325645 
0.13093 -0.593893 0.793819 0.13093 -0.593893 0.793819 0.13093 -0.593893 0.793819 
0.244168 -0.608321 0.755201 0.244168 -0.608321 0.755201 0.244168 -0.608321 0.755201 
-0.260339 -0.427807 -0.865566 -0.260339 -0.427807 -0.865566 -0.260339 -0.427807 -0.865566 
0.109926 -0.416075 -0.902661 0.109926 -0.416075 -0.902661 0.109926 -0.416075 -0.902661 
-0.178987 -0.207398 0.961743 -0.178987 -0.207398 0.961743 -0.178987 -0.207398 0.961743 
0.345194 -0.558516 -0.754255 0.345194 -0.558516 -0.754255 0.345194 -0.558516 -0.754255 
-0.0425022 -0.0716038 0.996527 -0.0425022 -0.0716038 0.996527 -0.0425022 -0.0716038 0.996527 
0.554075 -0.723321 0.412077 0.554075 -0.723321 0.412077 0.554075 -0.723321 0.412077 
0.329259 -0.429834 0.840733 0.329259 -0.429834 0.840733 0.329259 -0.429834 0.840733 
-0.797078 -0.419113 -0.434753 -0.797078 -0.419113 -0.434753 -0.797078 -0.419113 -0.434753 
-0.777033 -0.408573 0.47884 -0.777033 -0.408573 0.47884 -0.777033 -0.408573 0.47884 
-0.744434 -0.295846 -0.598575 -0.744434 -0.295846 -0.598575 -0.744434 -0.295846 -0.598575 
-0.924343 -0.367344 -0.103195 -0.924343 -0.367344 -0.103195 -0.924343 -0.367344 -0.103195 
-0.207801 -0.350812 -0.913099 -0.207801 -0.350812 -0.913099 -0.207801 -0.350812 -0.913099 
-0.412187 -0.176219 0.893895 -0.412187 -0.176219 0.893895 -0.412187 -0.176219 0.893895 
-0.481731 -0.226255 0.846607 -0.481731 -0.226255 0.846607 -0.481731 -0.226255 0.846607 
-0.0754496 -0.295118 -0.952477 -0.0754496 -0.295118 -0.952477 -0.0754496 -0.295118 -0.952477 
0.170085 -0.399987 -0.9006 0.170085 -0.399987 -0.9006 0.170085 -0.399987 -0.9006 
-0.28457 0.00609447 0.958636 -0.28457 0.00609447 0.958636 -0.28457 0.00609447 0.958636 
-0.0424282 -0.0926864 0.994791 -0.0424282 -0.0926864 0.994791 -0.0424282 -0.0926864 0.994791 
0.458014 -0.589151 -0.665676 0.458014 -0.589151 -0.665676 0.458014 -0.589151 -0.665676 
0.590632 -0.705268 -0.39211 0.590632 -0.705268 -0.39211 0.590632 -0.705268 -0.39211 
0.654936 -0.717052 -0.238528 0.654936 -0.717052 -0.238528 0.654936 -0.717052 -0.238528 
-0.684059 -0.0851088 -0.724444 -0.684059 -0.0851088 -0.724444 -0.684059 -0.0851088 -0.724444 
-0.661933 -0.144976 0.73541 -0.661933 -0.144976 0.73541 -0.661933 -0.144976 0.73541 
-0.220462 -0.113808 -0.968733 -0.220462 -0.113808 -0.968733 -0.220462 -0.113808 -0.968733 
-0.417259 -0.043611 0.907741 -0.417259 -0.043611 0.907741 -0.417259 -0.043611 0.907741 
-0.239013 0.0787467 0.967818 -0.239013 0.0787467 0.967818 -0.239013 0.0787467 0.967818 
0.29487 -0.472608 -0.830478 0.29487 -0.472608 -0.830478 0.29487 -0.472608 -0.830478 
0.480749 -0.574058 -0.662826 0.480749 -0.574058 -0.662826 0.480749 -0.574058 -0.662826 
0.218156 -0.21829 0.951187 0.218156 -0.21829 0.951187 0.218156 -0.21829 0.951187 
0.311436 -0.348116 0.884207 0.311436 -0.348116 0.884207 0.311436 -0.348116 0.884207 
0.703636 -0.692243 -0.1603 0.703636 -0.692243 -0.1603 0.703636 -0.692243 -0.1603 
0.695122 -0.683867 0.221655 0.695122 -0.683867 0.221655 0.695122 -0.683867 0.221655 
-0.876851 0.0489557 -0.478264 -0.876851 0.0489557 -0.478264 -0.876851 0.0489557 -0.478264 
-0.690677 0.028064 -0.722618 -0.690677 0.028064 -0.722618 -0.690677 0.028064 -0.722618 
-0.686046 0.0383029 -0.726549 -0.686046 0.0383029 -0.726549 -0.686046 0.0383029 -0.726549 
-0.233127 -0.141443 -0.962105 -0.233127 -0.141443 -0.962105 -0.233127 -0.141443 -0.962105 
-0.107477 -0.237032 -0.965538 -0.107477 -0.237032 -0.965538 -0.107477 -0.237032 -0.965538 
-0.105608 0.0341436 0.993822 -0.105608 0.0341436 0.993822 -0.105608 0.0341436 0.993822 
-0.0608472 0.165389 0.98435 -0.0608472 0.165389 0.98435 -0.0608472 0.165389 0.98435 
0.161719 -0.0324204 0.986304 0.161719 -0.0324204 0.986304 0.161719 -0.0324204 0.986304 
-0.0234843 0.153426 0.987881 -0.0234843 0.153426 0.987881 -0.0234843 0.153426 0.987881 
0.474513 -0.595388 -0.648344 0.474513 -0.595388 -0.648344 0.474513 -0.595388 -0.648344 
-0.668087 0.0522282 0.742248 -0.668087 0.0522282 0.742248 -0.668087 0.0522282 0.742248 
-0.310565 0.0667206 0.948208 -0.310565 0.0667206 0.948208 -0.310565 0.0667206 0.948208 
-0.415414 0.10349 0.903726 -0.415414 0.10349 0.903726 -0.415414 0.10349 0.903726 
0.175459 -0.325683 -0.929056 0.175459 -0.325683 -0.929056 0.175459 -0.325683 -0.929056 
0.540061 -0.308317 0.783119 0.540061 -0.308317 0.783119 0.540061 -0.308317 0.783119 
0.316675 0.132175 0.93928 0.316675 0.132175 0.93928 0.316675 0.132175 0.93928 
0.659165 -0.376313 0.651069 0.659165 -0.376313 0.651069 0.659165 -0.376313 0.651069 
0.7176 -0.675151 -0.170943 0.7176 -0.675151 -0.170943 0.7176 -0.675151 -0.170943 
-0.774441 0.279116 0.567746 -0.774441 0.279116 0.567746 -0.774441 0.279116 0.567746 
-0.766558 0.243584 -0.594185 -0.766558 0.243584 -0.594185 -0.766558 0.243584 -0.594185 
-0.916261 0.33023 -0.226748 -0.916261 0.33023 -0.226748 -0.916261 0.33023 -0.226748 
-0.934466 -0.308114 -0.178437 -0.934466 -0.308114 -0.178437 -0.934466 -0.308114 -0.178437 
-0.486994 0.274254 0.829229 -0.486994 0.274254 0.829229 -0.486994 0.274254 0.829229 
-0.312619 0.250086 0.916366 -0.312619 0.250086 0.916366 -0.312619 0.250086 0.916366 
0.0490999 -0.162348 -0.985511 0.0490999 -0.162348 -0.985511 0.0490999 -0.162348 -0.985511 
-0.293684 0.261002 0.91958 -0.293684 0.261002 0.91958 -0.293684 0.261002 0.91958 
-0.27069 0.237471 0.932917 -0.27069 0.237471 0.932917 -0.27069 0.237471 0.932917 
-0.184617 0.283817 0.940938 -0.184617 0.283817 0.940938 -0.184617 0.283817 0.940938 
0.331006 -0.41925 -0.845378 0.331006 -0.41925 -0.845378 0.331006 -0.41925 -0.845378 
-0.0597968 0.163302 0.984762 -0.0597968 0.163302 0.984762 -0.0597968 0.163302 0.984762 
0.721003 -0.636488 -0.273931 0.721003 -0.636488 -0.273931 0.721003 -0.636488 -0.273931 
-0.946631 0.300805 -0.115782 -0.946631 0.300805 -0.115782 -0.946631 0.300805 -0.115782 
-0.633449 0.312196 -0.708009 -0.633449 0.312196 -0.708009 -0.633449 0.312196 -0.708009 
-0.682817 0.475302 0.554842 -0.682817 0.475302 0.554842 -0.682817 0.475302 0.554842 
-0.477606 0.332456 0.813244 -0.477606 0.332456 0.813244 -0.477606 0.332456 0.813244 
-0.407861 0.056782 -0.911277 -0.407861 0.056782 -0.911277 -0.407861 0.056782 -0.911277 
-0.299742 -0.0255066 -0.953679 -0.299742 -0.0255066 -0.953679 -0.299742 -0.0255066 -0.953679 
0.0601857 -0.218895 -0.973891 0.0601857 -0.218895 -0.973891 0.0601857 -0.218895 -0.973891 
0.307218 -0.314817 -0.898058 0.307218 -0.314817 -0.898058 0.307218 -0.314817 -0.898058 
0.202215 -0.258411 -0.944634 0.202215 -0.258411 -0.944634 0.202215 -0.258411 -0.944634 
0.10272 0.274245 0.956158 0.10272 0.274245 0.956158 0.10272 0.274245 0.956158 
0.300077 -0.405368 -0.863499 0.300077 -0.405368 -0.863499 0.300077 -0.405368 -0.863499 
0.460967 -0.547527 -0.698372 0.460967 -0.547527 -0.698372 0.460967 -0.547527 -0.698372 
0.318239 0.0879539 0.943922 0.318239 0.0879539 0.943922 0.318239 0.0879539 0.943922 
0.528391 -0.0727757 0.845876 0.528391 -0.0727757 0.845876 0.528391 -0.0727757 0.845876 
0.777768 -0.381911 0.499221 0.777768 -0.381911 0.499221 0.777768 -0.381911 0.499221 
0.695304 -0.341419 0.632445 0.695304 -0.341419 0.632445 0.695304 -0.341419 0.632445 
-0.834832 0.540952 -0.102108 -0.834832 0.540952 -0.102108 -0.834832 0.540952 -0.102108 
-0.692912 0.448991 -0.564163 -0.692912 0.448991 -0.564163 -0.692912 0.448991 -0.564163 
-0.217209 0.36937 0.903541 -0.217209 0.36937 0.903541 -0.217209 0.36937 0.903541 
-0.392743 0.460056 0.796305 -0.392743 0.460056 0.796305 -0.392743 0.460056 0.796305 
-0.227631 0.468143 0.85383 -0.227631 0.468143 0.85383 -0.227631 0.468143 0.85383 
-0.173037 0.438498 0.881917 -0.173037 0.438498 0.881917 -0.173037 0.438498 0.881917 
-0.115289 0.45891 0.880971 -0.115289 0.45891 0.880971 -0.115289 0.45891 0.880971 
-0.0552766 0.410195 0.910321 -0.0552766 0.410195 0.910321 -0.0552766 0.410195 0.910321 
0.255521 0.17052 0.951647 0.255521 0.17052 0.951647 0.255521 0.17052 0.951647 
0.694796 -0.666758 -0.269617 0.694796 -0.666758 -0.269617 0.694796 -0.666758 -0.269617 
-0.812573 0.582763 0.0106387 -0.812573 0.582763 0.0106387 -0.812573 0.582763 0.0106387 
-0.682218 0.489274 0.543314 -0.682218 0.489274 0.543314 -0.682218 0.489274 0.543314 
-0.572989 0.282399 -0.769373 -0.572989 0.282399 -0.769373 -0.572989 0.282399 -0.769373 
-0.371571 0.621275 0.689893 -0.371571 0.621275 0.689893 -0.371571 0.621275 0.689893 
-0.14076 0.495272 0.857259 -0.14076 0.495272 0.857259 -0.14076 0.495272 0.857259 
-0.177497 0.0177079 -0.983962 -0.177497 0.0177079 -0.983962 -0.177497 0.0177079 -0.983962 
-0.245074 0.575196 0.780441 -0.245074 0.575196 0.780441 -0.245074 0.575196 0.780441 
0.126849 -0.0257022 -0.991589 0.126849 -0.0257022 -0.991589 0.126849 -0.0257022 -0.991589 
0.125145 -0.0257078 -0.991805 0.125145 -0.0257078 -0.991805 0.125145 -0.0257078 -0.991805 
0.0353425 0.364126 0.930679 0.0353425 0.364126 0.930679 0.0353425 0.364126 0.930679 
0.44816 -0.556367 -0.69972 0.44816 -0.556367 -0.69972 0.44816 -0.556367 -0.69972 
0.69803 -0.612942 -0.37021 0.69803 -0.612942 -0.37021 0.69803 -0.612942 -0.37021 
0.798137 -0.361169 0.482218 0.798137 -0.361169 0.482218 0.798137 -0.361169 0.482218 
0.73336 -0.580293 -0.354178 0.73336 -0.580293 -0.354178 0.73336 -0.580293 -0.354178 
0.887702 -0.45559 -0.066514 0.887702 -0.45559 -0.066514 0.887702 -0.45559 -0.066514 
-0.558283 0.69405 -0.45455 -0.558283 0.69405 -0.45455 -0.558283 0.69405 -0.45455 
-0.62641 0.778744 0.0341749 -0.62641 0.778744 0.0341749 -0.62641 0.778744 0.0341749 
-0.543224 0.415783 -0.729406 -0.543224 0.415783 -0.729406 -0.543224 0.415783 -0.729406 
-0.792606 0.606659 -0.0611601 -0.792606 0.606659 -0.0611601 -0.792606 0.606659 -0.0611601 
-0.321895 0.747617 0.580907 -0.321895 0.747617 0.580907 -0.321895 0.747617 0.580907 
-0.215472 0.771097 0.599151 -0.215472 0.771097 0.599151 -0.215472 0.771097 0.599151 
-0.171606 0.0357341 -0.984517 -0.171606 0.0357341 -0.984517 -0.171606 0.0357341 -0.984517 
-0.0174695 0.189639 -0.981699 -0.0174695 0.189639 -0.981699 -0.0174695 0.189639 -0.981699 
0.198146 -0.265743 -0.943461 0.198146 -0.265743 -0.943461 0.198146 -0.265743 -0.943461 
0.298624 -0.414541 -0.859639 0.298624 -0.414541 -0.859639 0.298624 -0.414541 -0.859639 
0.228021 0.244218 0.942531 0.228021 0.244218 0.942531 0.228021 0.244218 0.942531 
0.438741 -0.47434 -0.763222 0.438741 -0.47434 -0.763222 0.438741 -0.47434 -0.763222 
0.799814 -0.177718 0.573335 0.799814 -0.177718 0.573335 0.799814 -0.177718 0.573335 
-0.342233 0.570768 -0.746392 -0.342233 0.570768 -0.746392 -0.342233 0.570768 -0.746392 
-0.512333 0.854456 -0.0861416 -0.512333 0.854456 -0.0861416 -0.512333 0.854456 -0.0861416 
-0.582008 0.493966 -0.645959 -0.582008 0.493966 -0.645959 -0.582008 0.493966 -0.645959 
-0.162565 0.825098 0.541097 -0.162565 0.825098 0.541097 -0.162565 0.825098 0.541097 
-0.0152927 0.511126 -0.85937 -0.0152927 0.511126 -0.85937 -0.0152927 0.511126 -0.85937 
-0.232401 0.813326 0.533377 -0.232401 0.813326 0.533377 -0.232401 0.813326 0.533377 
-0.153643 0.720092 0.676654 -0.153643 0.720092 0.676654 -0.153643 0.720092 0.676654 
0.070408 -0.185562 -0.980107 0.070408 -0.185562 -0.980107 0.070408 -0.185562 -0.980107 
-0.175595 0.603581 0.777726 -0.175595 0.603581 0.777726 -0.175595 0.603581 0.777726 
0.0454352 -0.270839 -0.961552 0.0454352 -0.270839 -0.961552 0.0454352 -0.270839 -0.961552 
0.0206802 0.364276 0.931062 0.0206802 0.364276 0.931062 0.0206802 0.364276 0.931062 
0.199553 -0.425624 -0.882623 0.199553 -0.425624 -0.882623 0.199553 -0.425624 -0.882623 
0.166173 0.247339 0.954573 0.166173 0.247339 0.954573 0.166173 0.247339 0.954573 
0.671726 -0.531523 -0.516012 0.671726 -0.531523 -0.516012 0.671726 -0.531523 -0.516012 
0.378298 -0.194151 0.905095 0.378298 -0.194151 0.905095 0.378298 -0.194151 0.905095 
0.828839 -0.10242 0.550032 0.828839 -0.10242 0.550032 0.828839 -0.10242 0.550032 
0.859248 -0.502738 -0.0945873 0.859248 -0.502738 -0.0945873 0.859248 -0.502738 -0.0945873 
-0.185739 0.942716 0.277105 -0.185739 0.942716 0.277105 -0.185739 0.942716 0.277105 
-0.190345 0.779759 -0.596443 -0.190345 0.779759 -0.596443 -0.190345 0.779759 -0.596443 
-0.139857 0.917696 -0.371852 -0.139857 0.917696 -0.371852 -0.139857 0.917696 -0.371852 
-0.147618 0.968623 0.199949 -0.147618 0.968623 0.199949 -0.147618 0.968623 0.199949 
-0.157518 0.973612 0.165131 -0.157518 0.973612 0.165131 -0.157518 0.973612 0.165131 
0.133931 0.667395 -0.732562 0.133931 0.667395 -0.732562 0.133931 0.667395 -0.732562 
-0.430361 0.607906 -0.667264 -0.430361 0.607906 -0.667264 -0.430361 0.607906 -0.667264 
-0.359163 0.680119 0.639093 -0.359163 0.680119 0.639093 -0.359163 0.680119 0.639093 
-0.18864 0.464653 -0.865166 -0.18864 0.464653 -0.865166 -0.18864 0.464653 -0.865166 
0.354111 -0.511402 -0.78299 0.354111 -0.511402 -0.78299 0.354111 -0.511402 -0.78299 
0.740882 -0.433483 -0.513016 0.740882 -0.433483 -0.513016 0.740882 -0.433483 -0.513016 
-0.327323 0.859784 -0.391959 -0.327323 0.859784 -0.391959 -0.327323 0.859784 -0.391959 
-0.351406 0.923041 0.156554 -0.351406 0.923041 0.156554 -0.351406 0.923041 0.156554 
-0.589779 0.807564 -0.00145839 -0.589779 0.807564 -0.00145839 -0.589779 0.807564 -0.00145839 
-0.331827 0.814234 0.476355 -0.331827 0.814234 0.476355 -0.331827 0.814234 0.476355 
-0.269273 -0.122655 -0.955221 -0.269273 -0.122655 -0.955221 -0.269273 -0.122655 -0.955221 
-0.24039 0.511938 0.824701 -0.24039 0.511938 0.824701 -0.24039 0.511938 0.824701 
0.402541 -0.46109 -0.790795 0.402541 -0.46109 -0.790795 0.402541 -0.46109 -0.790795 
0.752894 -0.49728 -0.431118 0.752894 -0.49728 -0.431118 0.752894 -0.49728 -0.431118 
0.912202 -0.237996 0.333535 0.912202 -0.237996 0.333535 0.912202 -0.237996 0.333535 
-0.551182 0.590742 -0.589256 -0.551182 0.590742 -0.589256 -0.551182 0.590742 -0.589256 
-0.677114 0.725712 0.121893 -0.677114 0.725712 0.121893 -0.677114 0.725712 0.121893 
-0.468009 0.277248 -0.839107 -0.468009 0.277248 -0.839107 -0.468009 0.277248 -0.839107 
-0.838606 0.49679 -0.22347 -0.838606 0.49679 -0.22347 -0.838606 0.49679 -0.22347 
0.0536526 -0.255758 -0.965251 0.0536526 -0.255758 -0.965251 0.0536526 -0.255758 -0.965251 
-0.285936 0.496536 0.819568 -0.285936 0.496536 0.819568 -0.285936 0.496536 0.819568 
-0.00581423 0.39825 0.917259 -0.00581423 0.39825 0.917259 -0.00581423 0.39825 0.917259 
0.220303 0.299377 0.928353 0.220303 0.299377 0.928353 0.220303 0.299377 0.928353 
0.60909 -0.0131764 0.792992 0.60909 -0.0131764 0.792992 0.60909 -0.0131764 0.792992 
0.523764 0.140865 0.840136 0.523764 0.140865 0.840136 0.523764 0.140865 0.840136 
-0.794031 0.60557 0.0529076 -0.794031 0.60557 0.0529076 -0.794031 0.60557 0.0529076 
-0.710071 0.541538 0.45004 -0.710071 0.541538 0.45004 -0.710071 0.541538 0.45004 
-0.697097 0.711255 0.0903955 -0.697097 0.711255 0.0903955 -0.697097 0.711255 0.0903955 
-0.55092 0.638842 0.537 -0.55092 0.638842 0.537 -0.55092 0.638842 0.537 
-0.530784 0.541565 0.651901 -0.530784 0.541565 0.651901 -0.530784 0.541565 0.651901 
-0.318823 -0.124972 -0.939539 -0.318823 -0.124972 -0.939539 -0.318823 -0.124972 -0.939539 
0.0459675 0.41953 0.906577 0.0459675 0.41953 0.906577 0.0459675 0.41953 0.906577 
-0.753385 0.0889281 -0.651539 -0.753385 0.0889281 -0.651539 -0.753385 0.0889281 -0.651539 
-0.263268 -0.19261 -0.9453 -0.263268 -0.19261 -0.9453 -0.263268 -0.19261 -0.9453 
-0.537079 0.538616 0.649183 -0.537079 0.538616 0.649183 -0.537079 0.538616 0.649183 