# vtk DataFile Version 4.2
3D Slicer output. SPACE=LPS
ASCII
DATASET POLYDATA
POINTS 1992 double
8.2033309937 -6.3247289658 3.215303421 6.1765751839 -6.8146138191 1.2338790894 9.2139644623 -6.5287866592 1.2338790894 
9.2139644623 -6.5287866592 1.2338790894 11.235235214 -6.0816559792 3.215303421 8.2033309937 -6.3247289658 3.215303421 
4.1607909203 -5.4618868828 -0.74754524231 6.1820607185 -5.8097696304 -0.69240665436 3.8839459419 -5.8097696304 0.24316692352 
3.8839459419 -5.8097696304 0.24316692352 6.1820607185 -5.8097696304 -0.69240665436 6.1765751839 -6.8146138191 1.2338790894 
4.3450884819 -5.8097696304 1.2338790894 3.8839459419 -5.8097696304 0.24316692352 6.1765751839 -6.8146138191 1.2338790894 
6.1765751839 -6.8146138191 1.2338790894 5.4223828316 -5.8097696304 2.2245912552 4.3450884819 -5.8097696304 1.2338790894 
6.1765751839 -6.8146138191 1.2338790894 8.2033309937 -6.3247289658 3.215303421 5.4223828316 -5.8097696304 2.2245912552 
6.1765751839 -6.8146138191 1.2338790894 6.1820607185 -5.8097696304 -0.69240665436 9.2139644623 -6.5287866592 1.2338790894 
8.2033309937 -6.3247289658 3.215303421 8.2033309937 -4.8049259186 4.1333398819 5.4223828316 -5.8097696304 2.2245912552 
9.2139644623 -6.5287866592 1.2338790894 11.235235214 -6.1064777374 2.2245912552 11.235235214 -6.0816559792 3.215303421 
9.2139644623 -6.5287866592 1.2338790894 14.437896729 -3.8000822067 1.2338790894 11.235235214 -6.1064777374 2.2245912552 
4.1607909203 -5.4618868828 -0.74754524231 3.8839459419 -5.8097696304 0.24316692352 1.7008590698 -3.8000822067 0.24316692352 
1.8835673332 -3.8000822067 -0.74754524231 4.1607909203 -5.4618868828 -0.74754524231 1.7008590698 -3.8000822067 0.24316692352 
3.8839459419 -5.8097696304 0.24316692352 3.2800965309 -4.8049259186 1.2338790894 1.7008590698 -3.8000822067 0.24316692352 
3.8839459419 -5.8097696304 0.24316692352 4.3450884819 -5.8097696304 1.2338790894 3.2800965309 -4.8049259186 1.2338790894 
4.1607909203 -5.4618868828 -0.74754524231 4.1607909203 -3.8000822067 -1.8364591599 6.1820607185 -5.8097696304 -0.69240665436 
4.3450884819 -5.8097696304 1.2338790894 5.4223828316 -5.8097696304 2.2245912552 3.2800965309 -4.8049259186 1.2338790894 
5.4223828316 -5.8097696304 2.2245912552 6.1820607185 -4.8049259186 3.26866436 3.2800965309 -4.8049259186 1.2338790894 
5.4223828316 -5.8097696304 2.2245912552 8.2033309937 -4.8049259186 4.1333398819 6.1820607185 -4.8049259186 3.26866436 
9.2139644623 -6.5287866592 1.2338790894 6.1820607185 -5.8097696304 -0.69240665436 8.2033309937 -3.8000822067 -1.6986513138 
8.2033309937 -4.8049259186 4.1333398819 8.2033309937 -6.3247289658 3.215303421 10.224599838 -4.8049259186 4.5324277878 
8.2033309937 -3.8000822067 -1.6986513138 14.267139435 -3.0771551132 0.24316692352 9.2139644623 -6.5287866592 1.2338790894 
14.267139435 -3.0771551132 0.24316692352 14.437896729 -3.8000822067 1.2338790894 9.2139644623 -6.5287866592 1.2338790894 
8.2033309937 -6.3247289658 3.215303421 11.235235214 -6.0816559792 3.215303421 10.224599838 -4.8049259186 4.5324277878 
10.224599838 -4.8049259186 4.5324277878 11.235235214 -6.0816559792 3.215303421 14.267139435 -2.7952384949 4.8791151047 
11.235235214 -6.1064777374 2.2245912552 14.267139435 -4.4485960007 3.215303421 11.235235214 -6.0816559792 3.215303421 
1.7008590698 -3.8000822067 0.24316692352 3.2800965309 -4.8049259186 1.2338790894 1.8142929077 -2.7952384949 1.2338790894 
3.2800965309 -4.8049259186 1.2338790894 6.1820607185 -4.8049259186 3.26866436 1.8142929077 -2.7952384949 1.2338790894 
4.1607909203 -3.8000822067 -1.8364591599 4.1607909203 -5.4618868828 -0.74754524231 1.8835673332 -3.8000822067 -0.74754524231 
6.1820607185 -5.8097696304 -0.69240665436 4.1607909203 -3.8000822067 -1.8364591599 6.1820607185 -2.7952384949 -2.3607988358 
8.2033309937 -3.8000822067 -1.6986513138 6.1820607185 -5.8097696304 -0.69240665436 6.1820607185 -2.7952384949 -2.3607988358 
8.2033309937 -4.8049259186 4.1333398819 7.1926951408 -3.8000822067 4.013094902 6.1820607185 -4.8049259186 3.26866436 
7.1926951408 -3.8000822067 4.013094902 8.2033309937 -4.8049259186 4.1333398819 10.224599838 -2.7952384949 4.9262075424 
10.224599838 -2.7952384949 4.9262075424 8.2033309937 -4.8049259186 4.1333398819 10.224599838 -4.8049259186 4.5324277878 
8.2033309937 -3.8000822067 -1.6986513138 13.256504059 -1.790394783 -1.2946548462 14.267139435 -3.0771551132 0.24316692352 
14.267139435 -2.7952384949 4.8791151047 10.224599838 -2.7952384949 4.9262075424 10.224599838 -4.8049259186 4.5324277878 
11.235235214 -6.1064777374 2.2245912552 14.437896729 -3.8000822067 1.2338790894 17.299043655 -2.3012599945 2.2245912552 
17.299043655 -2.3012599945 2.2245912552 14.267139435 -4.4485960007 3.215303421 11.235235214 -6.1064777374 2.2245912552 
11.235235214 -6.0816559792 3.215303421 14.267139435 -4.4485960007 3.215303421 14.267139435 -2.7952384949 4.8791151047 
1.8835673332 -3.8000822067 -0.74754524231 1.7008590698 -3.8000822067 0.24316692352 0.77145767212 -0.78555107117 -0.74754524231 
1.7008590698 -3.8000822067 0.24316692352 0.20133829117 0.21929359436 0.24316692352 0.77145767212 -0.78555107117 -0.74754524231 
1.7008590698 -3.8000822067 0.24316692352 1.8142929077 -2.7952384949 1.2338790894 0.20133829117 0.21929359436 0.24316692352 
1.8142929077 -2.7952384949 1.2338790894 6.1820607185 -4.8049259186 3.26866436 2.1395215988 -1.790394783 1.7951927185 
2.1395215988 -1.790394783 1.7951927185 6.1820607185 -4.8049259186 3.26866436 4.1607909203 -1.790394783 2.7487821579 
4.1607909203 -3.8000822067 -1.8364591599 1.8835673332 -3.8000822067 -0.74754524231 4.1607909203 -1.790394783 -2.4276399612 
6.1820607185 -2.7952384949 -2.3607988358 4.1607909203 -3.8000822067 -1.8364591599 4.1607909203 -1.790394783 -2.4276399612 
6.1820607185 -4.8049259186 3.26866436 7.1926951408 -3.8000822067 4.013094902 4.1607909203 -1.790394783 2.7487821579 
10.224599838 -2.7952384949 4.9262075424 7.1926951408 -1.790394783 4.1816625595 7.1926951408 -3.8000822067 4.013094902 
14.267139435 -3.0771551132 0.24316692352 17.299043655 -1.8185977936 1.2338790894 14.437896729 -3.8000822067 1.2338790894 
17.299043655 -1.8185977936 1.2338790894 17.299043655 -2.3012599945 2.2245912552 14.437896729 -3.8000822067 1.2338790894 
17.299043655 -2.3573160172 3.215303421 17.299043655 -1.790394783 4.0704164505 14.267139435 -4.4485960007 3.215303421 
14.267139435 -4.4485960007 3.215303421 17.299043655 -1.790394783 4.0704164505 14.267139435 -2.7952384949 4.8791151047 
17.299043655 -2.3573160172 3.215303421 14.267139435 -4.4485960007 3.215303421 17.299043655 -2.3012599945 2.2245912552 
1.8835673332 -3.8000822067 -0.74754524231 0.77145767212 -0.78555107117 -0.74754524231 2.1395215988 -0.78555107117 -1.9839839935 
4.1607909203 -1.790394783 -2.4276399612 1.8835673332 -3.8000822067 -0.74754524231 2.1395215988 -0.78555107117 -1.9839839935 
7.1926951408 -1.790394783 4.1816625595 4.1607909203 -1.790394783 2.7487821579 7.1926951408 -3.8000822067 4.013094902 
13.256504059 -1.790394783 -1.2946548462 8.2033309937 -3.8000822067 -1.6986513138 12.24587059 -0.78555107117 -2.2030944824 
1.8142929077 -2.7952384949 1.2338790894 2.1395215988 -1.790394783 1.7951927185 0.20133829117 0.21929359436 0.24316692352 
7.1926951408 -1.790394783 4.1816625595 7.1926951408 0.21929359436 3.9495439529 4.1607909203 -1.790394783 2.7487821579 
4.1607909203 -1.790394783 -2.4276399612 8.2033309937 1.2241373062 -3.4907808304 6.1820607185 -2.7952384949 -2.3607988358 
6.1820607185 -2.7952384949 -2.3607988358 12.24587059 -0.78555107117 -2.2030944824 8.2033309937 -3.8000822067 -1.6986513138 
11.235235214 -0.78555107117 4.9892206192 7.1926951408 -1.790394783 4.1816625595 10.224599838 -2.7952384949 4.9262075424 
14.267139435 -2.7952384949 4.8791151047 11.235235214 -0.78555107117 4.9892206192 10.224599838 -2.7952384949 4.9262075424 
16.288408279 0.21929359436 4.868678093 11.235235214 -0.78555107117 4.9892206192 14.267139435 -2.7952384949 4.8791151047 
17.299043655 -1.790394783 4.0704164505 16.288408279 0.21929359436 4.868678093 14.267139435 -2.7952384949 4.8791151047 
14.267139435 -3.0771551132 0.24316692352 13.256504059 -1.790394783 -1.2946548462 17.299043655 -1.8185977936 1.2338790894 
17.299043655 -1.8185977936 1.2338790894 19.873968124 0.21929359436 2.2245912552 17.299043655 -2.3012599945 2.2245912552 
19.873968124 0.21929359436 2.2245912552 17.299043655 -2.3573160172 3.215303421 17.299043655 -2.3012599945 2.2245912552 
0.77145767212 -0.78555107117 -0.74754524231 0.20133829117 0.21929359436 0.24316692352 0.74830579758 0.21929359436 -0.74754524231 
0.74830579758 0.21929359436 -0.74754524231 2.1395215988 -0.78555107117 -1.9839839935 0.77145767212 -0.78555107117 -0.74754524231 
0.20133829117 0.21929359436 0.24316692352 2.1395215988 -1.790394783 1.7951927185 2.1395215988 1.2241373062 1.8079252243 
4.1607909203 -1.790394783 2.7487821579 7.1926951408 0.21929359436 3.9495439529 2.1395215988 -1.790394783 1.7951927185 
7.1926951408 0.21929359436 3.9495439529 2.1395215988 1.2241373062 1.8079252243 2.1395215988 -1.790394783 1.7951927185 
8.2033309937 4.2386684418 -3.8708467484 8.2033309937 1.2241373062 -3.4907808304 4.1607909203 -1.790394783 -2.4276399612 
10.224599838 1.2241373062 4.3843774796 7.1926951408 0.21929359436 3.9495439529 7.1926951408 -1.790394783 4.1816625595 
11.235235214 -0.78555107117 4.9892206192 10.224599838 1.2241373062 4.3843774796 7.1926951408 -1.790394783 4.1816625595 
12.24587059 -0.78555107117 -2.2030944824 6.1820607185 -2.7952384949 -2.3607988358 11.235235214 1.2241373062 -3.2255430222 
17.299043655 -1.790394783 4.0704164505 18.309679031 1.2241373062 4.248415947 16.288408279 0.21929359436 4.868678093 
17.299043655 -1.8185977936 1.2338790894 13.256504059 -1.790394783 -1.2946548462 21.341583252 3.0107660294 -0.74754524231 
17.299043655 -1.8185977936 1.2338790894 21.341583252 3.0107660294 -0.74754524231 22.552192688 3.2338247299 0.24316692352 
22.552192688 3.2338247299 0.24316692352 19.873968124 0.21929359436 2.2245912552 17.299043655 -1.8185977936 1.2338790894 
[...]
CELL_DATA 664
FIELD FieldData 1
GroupIds 1 664 float
0 0 0 0 0 0 0 0 0 
0 0 0 0 0 0 0 0 0 
0 0 0 0 0 0 0 0 0 
0 0 0 0 0 0 0 0 0 
0 0 0 0 0 0 0 0 0 
0 0 0 0 0 0 0 0 0 
0 0 0 0 0 0 0 0 0 
0 0 0 0 0 0 0 0 0 
0 0 0 0 0 0 0 0 0 
0 0 0 0 0 0 0 0 0 
0 0 0 0 0 0 0 0 0 
0 0 0 0 0 0 0 0 0 
0 0 0 0 0 0 0 0 0 
0 0 0 0 0 0 0 0 0 
0 0 0 0 0 0 0 0 0 
0 0 0 0 0 0 0 0 0 
0 0 0 0 0 0 0 0 0 
0 0 0 0 0 0 0 0 0 
0 0 0 0 0 0 0 0 0 
0 0 0 0 0 0 0 0 0 
0 0 0 0 0 0 0 0 0 
0 0 0 0 0 0 0 0 0 
0 0 0 0 0 0 0 0 0 
0 0 0 0 0 0 0 0 0 
0 0 0 0 0 0 0 0 0 
0 0 0 0 0 0 0 0 0 
0 0 0 0 0 0 0 0 0 
0 0 0 0 0 0 0 0 0 
0 0 0 0 0 0 0 0 0 
0 0 0 0 0 0 0 0 0 
0 0 0 0 0 0 0 0 0 
0 0 0 0 0 0 0 0 0 
0 0 0 0 0 0 0 0 0 
0 0 0 0 0 0 0 0 0 
0 0 0 0 0 0 0 0 0 
0 0 0 0 0 0 0 0 0 
0 0 0 0 0 0 0 0 0 
0 0 0 0 0 0 0 0 0 
0 0 0 0 0 0 0 0 0 
0 0 0 0 0 0 0 0 0 
0 0 0 0 0 0 0 0 0 
0 0 0 0 0 0 0 0 0 
0 0 0 0 0 0 0 0 0 
0 0 0 0 0 0 0 0 0 
0 0 0 0 0 0 0 0 0 
0 0 0 0 0 0 0 0 0 
0 0 0 0 0 0 0 0 0 
0 0 0 0 0 0 0 0 0 
0 0 0 0 0 0 0 0 0 
0 0 0 0 0 0 0 0 0 
0 0 0 0 0 0 0 0 0 
0 0 0 0 0 0 0 0 0 
0 0 0 0 0 0 0 0 0 
0 0 0 0 0 0 0 0 0 
0 0 0 0 0 0 0 0 0 
0 0 0 0 0 0 0 0 0 
0 0 0 0 0 0 0 0 0 
0 0 0 0 0 0 0 0 0 
0 0 0 0 0 0 0 0 0 
0 0 0 0 0 0 0 0 0 
0 0 0 0 0 0 0 0 0 
0 0 0 0 0 0 0 0 0 
0 0 0 0 0 0 0 0 0 
0 0 0 0 0 0 0 0 0 
0 0 0 0 0 0 0 0 0 
0 0 0 0 0 0 0 0 0 
0 0 0 0 0 0 0 0 0 
0 0 0 0 0 0 0 0 0 
0 0 0 0 0 0 0 0 0 
0 0 0 0 0 0 0 0 0 
0 0 0 0 0 0 0 0 0 
0 0 0 0 0 0 0 0 0 
0 0 0 0 0 0 0 0 0 
0 0 0 0 0 0 0 
POINT_DATA 1992
NORMALS Normals float
0.0926481 -0.98454 0.148649 0.0926481 -0.98454 0.148649 0.0926481 -0.98454 0.148649 
0.0791059 -0.986706 0.141965 0.0791059 -0.986706 0.141965 0.0791059 -0.986706 0.141965 
-0.148302 -0.919404 -0.364285 -0.148302 -0.919404 -0.364285 -0.148302 -0.919404 -0.364285 
-0.185199 -0.871064 -0.454917 -0.185199 -0.871064 -0.454917 -0.185199 -0.871064 -0.454917 
-0.469389 -0.855534 0.218484 -0.469389 -0.855534 0.218484 -0.469389 -0.855534 0.218484 
-0.426227 -0.776866 0.463477 -0.426227 -0.776866 0.463477 -0.426227 -0.776866 0.463477 
-0.334002 -0.776905 0.533724 -0.334002 -0.776905 0.533724 -0.334002 -0.776905 0.533724 
0.0831535 -0.883644 -0.460715 0.0831535 -0.883644 -0.460715 0.0831535 -0.883644 -0.460715 
-0.371933 -0.479949 0.794553 -0.371933 -0.479949 0.794553 -0.371933 -0.479949 0.794553 
0.192898 -0.980911 0.0245762 0.192898 -0.980911 0.0245762 0.192898 -0.980911 0.0245762 
0.402793 -0.771122 -0.493082 0.402793 -0.771122 -0.493082 0.402793 -0.771122 -0.493082 
-0.618183 -0.671521 -0.408546 -0.618183 -0.671521 -0.408546 -0.618183 -0.671521 -0.408546 
-0.586027 -0.803052 -0.108076 -0.586027 -0.803052 -0.108076 -0.586027 -0.803052 -0.108076 
-0.642515 -0.697952 0.316288 -0.642515 -0.697952 0.316288 -0.642515 -0.697952 0.316288 
-0.653726 -0.692857 0.304287 -0.653726 -0.692857 0.304287 -0.653726 -0.692857 0.304287 
-0.0713309 -0.546681 -0.834297 -0.0713309 -0.546681 -0.834297 -0.0713309 -0.546681 -0.834297 
-0.550005 -0.582927 0.598072 -0.550005 -0.582927 0.598072 -0.550005 -0.582927 0.598072 
-0.529938 -0.38465 0.755785 -0.529938 -0.38465 0.755785 -0.529938 -0.38465 0.755785 
-0.32857 -0.549649 0.768068 -0.32857 -0.549649 0.768068 -0.32857 -0.549649 0.768068 
0.293422 -0.647335 -0.703463 0.293422 -0.647335 -0.703463 0.293422 -0.647335 -0.703463 
-0.166641 -0.509813 0.843992 -0.166641 -0.509813 0.843992 -0.166641 -0.509813 0.843992 
0.301912 -0.643808 -0.703108 0.301912 -0.643808 -0.703108 0.301912 -0.643808 -0.703108 
0.374559 -0.717069 -0.587807 0.374559 -0.717069 -0.587807 0.374559 -0.717069 -0.587807 
0.0557357 -0.695204 0.716649 0.0557357 -0.695204 0.716649 0.0557357 -0.695204 0.716649 
0.233936 -0.60224 0.76327 0.233936 -0.60224 0.76327 0.233936 -0.60224 0.76327 
0.474096 -0.880197 0.0220528 0.474096 -0.880197 0.0220528 0.474096 -0.880197 0.0220528 
-0.664932 -0.484981 0.568031 -0.664932 -0.484981 0.568031 -0.664932 -0.484981 0.568031 
-0.529556 -0.386242 0.75524 -0.529556 -0.386242 0.75524 -0.529556 -0.386242 0.75524 
-0.371358 -0.508884 -0.776614 -0.371358 -0.508884 -0.776614 -0.371358 -0.508884 -0.776614 
0.01376 -0.484189 -0.874855 0.01376 -0.484189 -0.874855 0.01376 -0.484189 -0.874855 
0.0458428 -0.483725 -0.874018 0.0458428 -0.483725 -0.874018 0.0458428 -0.483725 -0.874018 
-0.378194 -0.274581 0.884067 -0.378194 -0.274581 0.884067 -0.378194 -0.274581 0.884067 
-0.245491 -0.131983 0.960372 -0.245491 -0.131983 0.960372 -0.245491 -0.131983 0.960372 
-0.190222 -0.188774 0.963421 -0.190222 -0.188774 0.963421 -0.190222 -0.188774 0.963421 
0.305069 -0.62212 -0.721041 0.305069 -0.62212 -0.721041 0.305069 -0.62212 -0.721041 
0.0114311 -0.192272 0.981275 0.0114311 -0.192272 0.981275 0.0114311 -0.192272 0.981275 
0.515227 -0.821041 -0.24583 0.515227 -0.821041 -0.24583 0.515227 -0.821041 -0.24583 
0.520272 -0.82908 -0.204801 0.520272 -0.82908 -0.204801 0.520272 -0.82908 -0.204801 
0.356902 -0.662616 0.658453 0.356902 -0.662616 0.658453 0.356902 -0.662616 0.658453 
-0.924457 -0.341047 -0.170489 -0.924457 -0.341047 -0.170489 -0.924457 -0.341047 -0.170489 
-0.921348 -0.34373 -0.181569 -0.921348 -0.34373 -0.181569 -0.921348 -0.34373 -0.181569 
-0.850602 -0.317337 0.419255 -0.850602 -0.317337 0.419255 -0.850602 -0.317337 0.419255 
-0.510025 -0.287736 0.810606 -0.510025 -0.287736 0.810606 -0.510025 -0.287736 0.810606 
-0.423111 -0.129031 0.896844 -0.423111 -0.129031 0.896844 -0.423111 -0.129031 0.896844 
-0.41696 -0.256506 -0.87198 -0.41696 -0.256506 -0.87198 -0.41696 -0.256506 -0.87198 
-0.107937 -0.28056 -0.953748 -0.107937 -0.28056 -0.953748 -0.107937 -0.28056 -0.953748 
-0.47172 -0.166978 0.865794 -0.47172 -0.166978 0.865794 -0.47172 -0.166978 0.865794 
-0.262835 -0.0806453 0.961465 -0.262835 -0.0806453 0.961465 -0.262835 -0.0806453 0.961465 
0.466859 -0.674116 -0.572373 0.466859 -0.674116 -0.572373 0.466859 -0.674116 -0.572373 
0.528529 -0.763164 -0.371804 0.528529 -0.763164 -0.371804 0.528529 -0.763164 -0.371804 
0.4984 -0.722572 0.479049 0.4984 -0.722572 0.479049 0.4984 -0.722572 0.479049 
0.389658 -0.653266 0.649161 0.389658 -0.653266 0.649161 0.389658 -0.653266 0.649161 
0.567175 -0.822282 -0.046526 0.567175 -0.822282 -0.046526 0.567175 -0.822282 -0.046526 
-0.650897 -0.240127 -0.720189 -0.650897 -0.240127 -0.720189 -0.650897 -0.240127 -0.720189 
-0.355463 -0.328703 -0.874986 -0.355463 -0.328703 -0.874986 -0.355463 -0.328703 -0.874986 
-0.426063 -0.0756179 0.901528 -0.426063 -0.0756179 0.901528 -0.426063 -0.0756179 0.901528 
0.261184 -0.489475 -0.831984 0.261184 -0.489475 -0.831984 0.261184 -0.489475 -0.831984 
-0.709988 -0.154055 0.687156 -0.709988 -0.154055 0.687156 -0.709988 -0.154055 0.687156 
-0.424975 0.103861 0.899227 -0.424975 0.103861 0.899227 -0.424975 0.103861 0.899227 
-0.082746 -0.230932 -0.969445 -0.082746 -0.230932 -0.969445 -0.082746 -0.230932 -0.969445 
0.136506 -0.33883 -0.930892 0.136506 -0.33883 -0.930892 0.136506 -0.33883 -0.930892 
-0.213664 0.0769122 0.973875 -0.213664 0.0769122 0.973875 -0.213664 0.0769122 0.973875 
0.0116404 -0.0371846 0.999241 0.0116404 -0.0371846 0.999241 0.0116404 -0.0371846 0.999241 
0.0267181 -0.014454 0.999539 0.0267181 -0.014454 0.999539 0.0267181 -0.014454 0.999539 
0.316028 -0.208695 0.925512 0.316028 -0.208695 0.925512 0.316028 -0.208695 0.925512 
0.451863 -0.515349 -0.728172 0.451863 -0.515349 -0.728172 0.451863 -0.515349 -0.728172 
0.66063 -0.67488 -0.328793 0.66063 -0.67488 -0.328793 0.66063 -0.67488 -0.328793 
0.698951 -0.714028 -0.0404008 0.698951 -0.714028 -0.0404008 0.698951 -0.714028 -0.0404008 
-0.875262 -0.0201663 -0.483228 -0.875262 -0.0201663 -0.483228 -0.875262 -0.0201663 -0.483228 
-0.670436 -0.015447 -0.741807 -0.670436 -0.015447 -0.741807 -0.670436 -0.015447 -0.741807 
-0.627131 -0.00328988 0.778907 -0.627131 -0.00328988 0.778907 -0.627131 -0.00328988 0.778907 
-0.424417 0.102788 0.899614 -0.424417 0.102788 0.899614 -0.424417 0.102788 0.899614 
-0.39087 -0.00388766 0.920438 -0.39087 -0.00388766 0.920438 -0.39087 -0.00388766 0.920438 
-0.165337 -0.123366 -0.978491 -0.165337 -0.123366 -0.978491 -0.165337 -0.123366 -0.978491 
-0.177628 0.112912 0.977599 -0.177628 0.112912 0.977599 -0.177628 0.112912 0.977599 
-0.23363 0.170606 0.957241 -0.23363 0.170606 0.957241 -0.23363 0.170606 0.957241 
0.151758 -0.38651 -0.909714 0.151758 -0.38651 -0.909714 0.151758 -0.38651 -0.909714 
0.368229 -0.177341 0.912665 0.368229 -0.177341 0.912665 0.368229 -0.177341 0.912665 
0.413113 -0.619626 -0.667384 0.413113 -0.619626 -0.667384 0.413113 -0.619626 -0.667384 
0.54262 -0.664842 -0.51337 0.54262 -0.664842 -0.51337 0.54262 -0.664842 -0.51337 
0.655609 -0.723827 -0.215062 0.655609 -0.723827 -0.215062 0.655609 -0.723827 -0.215062 
0.730683 -0.621888 0.281706 0.730683 -0.621888 0.281706 0.730683 -0.621888 0.281706 
0.699664 -0.595488 0.394796 0.699664 -0.595488 0.394796 0.699664 -0.595488 0.394796 
-0.644546 0.046649 -0.763141 -0.644546 0.046649 -0.763141 -0.644546 0.046649 -0.763141 
-0.245515 -0.0668756 -0.967083 -0.245515 -0.0668756 -0.967083 -0.245515 -0.0668756 -0.967083 
0.0829091 -0.308131 -0.947724 0.0829091 -0.308131 -0.947724 0.0829091 -0.308131 -0.947724 
-0.147362 0.216363 0.965128 -0.147362 0.216363 0.965128 -0.147362 0.216363 0.965128 
0.23849 -0.342416 -0.908776 0.23849 -0.342416 -0.908776 0.23849 -0.342416 -0.908776 
0.0122444 0.0581743 0.998231 0.0122444 0.0581743 0.998231 0.0122444 0.0581743 0.998231 
0.0677736 0.225163 0.971961 0.0677736 0.225163 0.971961 0.0677736 0.225163 0.971961 
0.525834 -0.224728 0.820363 0.525834 -0.224728 0.820363 0.525834 -0.224728 0.820363 
-0.288094 -0.0118978 -0.957528 -0.288094 -0.0118978 -0.957528 -0.288094 -0.0118978 -0.957528 
-0.320095 0.303236 0.897545 -0.320095 0.303236 0.897545 -0.320095 0.303236 0.897545 
-0.240265 0.329887 0.912933 -0.240265 0.329887 0.912933 -0.240265 0.329887 0.912933 
-0.146148 0.249902 0.957178 -0.146148 0.249902 0.957178 -0.146148 0.249902 0.957178 
-0.0512884 0.33807 0.939722 -0.0512884 0.33807 0.939722 -0.0512884 0.33807 0.939722 
0.308026 -0.448656 -0.838944 0.308026 -0.448656 -0.838944 0.308026 -0.448656 -0.838944 
0.0250053 0.303907 0.952373 0.0250053 0.303907 0.952373 0.0250053 0.303907 0.952373 
0.335758 -0.472558 -0.814835 0.335758 -0.472558 -0.814835 0.335758 -0.472558 -0.814835 
0.207936 0.175692 0.962234 0.207936 0.175692 0.962234 0.207936 0.175692 0.962234 
0.75433 0.588564 0.290824 0.75433 0.588564 0.290824 0.75433 0.588564 0.290824 
0.791198 -0.584341 0.180421 0.791198 -0.584341 0.180421 0.791198 -0.584341 0.180421 
-0.720088 0.307777 -0.621889 -0.720088 0.307777 -0.621889 -0.720088 0.307777 -0.621889 
-0.819922 0.350448 -0.452675 -0.819922 0.350448 -0.452675 -0.819922 0.350448 -0.452675 
-0.868838 0.47713 -0.132163 -0.868838 0.47713 -0.132163 -0.868838 0.47713 -0.132163 
-0.548844 0.301402 0.779696 -0.548844 0.301402 0.779696 -0.548844 0.301402 0.779696 
-0.689089 0.469414 0.552093 -0.689089 0.469414 0.552093 -0.689089 0.469414 0.552093 
-0.361651 0.056884 -0.930577 -0.361651 0.056884 -0.930577 -0.361651 0.056884 -0.930577 
-0.335198 0.325365 0.884183 -0.335198 0.325365 0.884183 -0.335198 0.325365 0.884183 
0.049919 -0.160802 -0.985724 0.049919 -0.160802 -0.985724 0.049919 -0.160802 -0.985724 
0.08647 -0.124619 -0.98843 0.08647 -0.124619 -0.98843 0.08647 -0.124619 -0.98843 
-0.21798 0.397423 0.891369 -0.21798 0.397423 0.891369 -0.21798 0.397423 0.891369 
-0.188328 0.390963 0.900933 -0.188328 0.390963 0.900933 -0.188328 0.390963 0.900933 
0.180367 -0.158362 -0.970767 0.180367 -0.158362 -0.970767 0.180367 -0.158362 -0.970767 
-0.112478 0.447963 0.886948 -0.112478 0.447963 0.886948 -0.112478 0.447963 0.886948 
0.200463 -0.178751 -0.963256 0.200463 -0.178751 -0.963256 0.200463 -0.178751 -0.963256 
0.0241904 0.388014 0.921336 0.0241904 0.388014 0.921336 0.0241904 0.388014 0.921336 
0.215864 0.179499 0.959783 0.215864 0.179499 0.959783 0.215864 0.179499 0.959783 
0.549834 -0.649062 -0.525738 0.549834 -0.649062 -0.525738 0.549834 -0.649062 -0.525738 
0 -1 0 0 -1 0 0 -1 0 
0.59295 -0.437925 0.675746 0.59295 -0.437925 0.675746 0.59295 -0.437925 0.675746 
-0.525357 0.164233 -0.834882 -0.525357 0.164233 -0.834882 -0.525357 0.164233 -0.834882 
-0.549412 0.370615 -0.748859 -0.549412 0.370615 -0.748859 -0.549412 0.370615 -0.748859 
0.431006 0.0910899 0.89774 0.431006 0.0910899 0.89774 0.431006 0.0910899 0.89774 
0.712119 -0.619704 -0.32993 0.712119 -0.619704 -0.32993 0.712119 -0.619704 -0.32993 
0.752125 -0.654519 -0.076891 0.752125 -0.654519 -0.076891 0.752125 -0.654519 -0.076891 
-0.755683 0.631171 -0.174832 -0.755683 0.631171 -0.174832 -0.755683 0.631171 -0.174832 
-0.646166 0.539698 -0.539625 -0.646166 0.539698 -0.539625 -0.646166 0.539698 -0.539625 
-0.161222 0.60926 0.776408 -0.161222 0.60926 0.776408 -0.161222 0.60926 0.776408 
-0.0820119 0.511728 0.855224 -0.0820119 0.511728 0.855224 -0.0820119 0.511728 0.855224 
-0.114886 0.517323 0.848044 -0.114886 0.517323 0.848044 -0.114886 0.517323 0.848044 
0.0786701 -0.347977 -0.934197 0.0786701 -0.347977 -0.934197 0.0786701 -0.347977 -0.934197 
0.124102 0.345217 0.930282 0.124102 0.345217 0.930282 0.124102 0.345217 0.930282 
0.0407591 -0.340286 -0.939438 0.0407591 -0.340286 -0.939438 0.0407591 -0.340286 -0.939438 
0.30955 -0.55678 -0.770827 0.30955 -0.55678 -0.770827 0.30955 -0.55678 -0.770827 
0.223858 -0.453169 -0.862859 0.223858 -0.453169 -0.862859 0.223858 -0.453169 -0.862859 
0.375452 -0.0926198 0.922203 0.375452 -0.0926198 0.922203 0.375452 -0.0926198 0.922203 
0.576403 -0.348027 0.739349 0.576403 -0.348027 0.739349 0.576403 -0.348027 0.739349 
0.853561 -0.210564 0.476546 0.853561 -0.210564 0.476546 0.853561 -0.210564 0.476546 
0.80151 -0.483945 0.351254 0.80151 -0.483945 0.351254 0.80151 -0.483945 0.351254 
-0.586175 0.702974 0.402774 -0.586175 0.702974 0.402774 -0.586175 0.702974 0.402774 
-0.622343 0.587867 -0.516818 -0.622343 0.587867 -0.516818 -0.622343 0.587867 -0.516818 
-0.429883 0.769415 0.472441 -0.429883 0.769415 0.472441 -0.429883 0.769415 0.472441 
-0.175133 0.633446 0.753707 -0.175133 0.633446 0.753707 -0.175133 0.633446 0.753707 
-0.030035 0.6431 0.765193 -0.030035 0.6431 0.765193 -0.030035 0.6431 0.765193 
-0.101347 0.18189 -0.978082 -0.101347 0.18189 -0.978082 -0.101347 0.18189 -0.978082 
-0.313485 0.386211 -0.867507 -0.313485 0.386211 -0.867507 -0.313485 0.386211 -0.867507 
-0.147664 0.69224 0.706399 -0.147664 0.69224 0.706399 -0.147664 0.69224 0.706399 
0.0497268 0.182605 -0.981928 0.0497268 0.182605 -0.981928 0.0497268 0.182605 -0.981928 
-0.238585 0.625395 0.742939 -0.238585 0.625395 0.742939 -0.238585 0.625395 0.742939 
0.0674578 0.208668 -0.975657 0.0674578 0.208668 -0.975657 0.0674578 0.208668 -0.975657 
0.0930951 0.195909 -0.976193 0.0930951 0.195909 -0.976193 0.0930951 0.195909 -0.976193 
0.313776 0.13082 0.940442 0.313776 0.13082 0.940442 0.313776 0.13082 0.940442 
0.409954 -0.576473 -0.706836 0.409954 -0.576473 -0.706836 0.409954 -0.576473 -0.706836 
-0.461344 0.885757 0.0509624 -0.461344 0.885757 0.0509624 -0.461344 0.885757 0.0509624 
-0.415461 0.797663 0.437179 -0.415461 0.797663 0.437179 -0.415461 0.797663 0.437179 
-0.458944 0.667267 -0.586622 -0.458944 0.667267 -0.586622 -0.458944 0.667267 -0.586622 
-0.0350568 0.997735 0.0574052 -0.0350568 0.997735 0.0574052 -0.0350568 0.997735 0.0574052 
-0.0311013 0.885161 0.464245 -0.0311013 0.885161 0.464245 -0.0311013 0.885161 0.464245 
-0.0409213 0.876193 0.480219 -0.0409213 0.876193 0.480219 -0.0409213 0.876193 0.480219 
-0.302781 0.440219 -0.8453 -0.302781 0.440219 -0.8453 -0.302781 0.440219 -0.8453 
-0.177576 0.871515 0.457088 -0.177576 0.871515 0.457088 -0.177576 0.871515 0.457088 
-0.0109416 0.694458 -0.71945 -0.0109416 0.694458 -0.71945 -0.0109416 0.694458 -0.71945 
-0.0264407 0.884442 -0.465901 -0.0264407 0.884442 -0.465901 -0.0264407 0.884442 -0.465901 
0.0585067 0.529652 -0.846195 0.0585067 0.529652 -0.846195 0.0585067 0.529652 -0.846195 
-0.160165 0.786062 0.597038 -0.160165 0.786062 0.597038 -0.160165 0.786062 0.597038 
-0.167195 0.785133 0.596333 -0.167195 0.785133 0.596333 -0.167195 0.785133 0.596333 
-0.0831825 0.528722 -0.844709 -0.0831825 0.528722 -0.844709 -0.0831825 0.528722 -0.844709 
0.105793 0.235091 -0.966199 0.105793 0.235091 -0.966199 0.105793 0.235091 -0.966199 
0.02447 0.347802 0.937248 0.02447 0.347802 0.937248 0.02447 0.347802 0.937248 
0.313073 0.13079 0.94068 0.313073 0.13079 0.94068 0.313073 0.13079 0.94068 
0.395187 -0.594119 -0.700607 0.395187 -0.594119 -0.700607 0.395187 -0.594119 -0.700607 
0.652522 -0.667142 -0.359356 0.652522 -0.667142 -0.359356 0.652522 -0.667142 -0.359356 
0.855204 -0.357998 0.374785 0.855204 -0.357998 0.374785 0.855204 -0.357998 0.374785 
0.607395 -0.155141 0.779103 0.607395 -0.155141 0.779103 0.607395 -0.155141 0.779103 
-0.0888053 0.961187 -0.261215 -0.0888053 0.961187 -0.261215 -0.0888053 0.961187 -0.261215 
-0.0906436 0.981084 0.17105 -0.0906436 0.981084 0.17105 -0.0906436 0.981084 0.17105 
-0.139886 0.812784 -0.565521 -0.139886 0.812784 -0.565521 -0.139886 0.812784 -0.565521 
-0.16747 0.973057 0.158475 -0.16747 0.973057 0.158475 -0.16747 0.973057 0.158475 
-0.105516 0.986164 0.127859 -0.105516 0.986164 0.127859 -0.105516 0.986164 0.127859 
-0.079061 0.785752 -0.613468 -0.079061 0.785752 -0.613468 -0.079061 0.785752 -0.613468 
-0.229796 0.0746526 -0.970372 -0.229796 0.0746526 -0.970372 -0.229796 0.0746526 -0.970372 
-0.106068 0.0114236 -0.994293 -0.106068 0.0114236 -0.994293 -0.106068 0.0114236 -0.994293 
0.437921 0.063024 0.896802 0.437921 0.063024 0.896802 0.437921 0.063024 0.896802 
0.667404 -0.602252 -0.438024 0.667404 -0.602252 -0.438024 0.667404 -0.602252 -0.438024 
0.794224 -0.352369 0.495019 0.794224 -0.352369 0.495019 0.794224 -0.352369 0.495019 
-0.513433 0.856835 -0.047116 -0.513433 0.856835 -0.047116 -0.513433 0.856835 -0.047116 
-0.554613 0.818091 0.152088 -0.554613 0.818091 0.152088 -0.554613 0.818091 0.152088 
-0.371195 0.547537 -0.749945 -0.371195 0.547537 -0.749945 -0.371195 0.547537 -0.749945 
-0.371638 0.818092 0.438874 -0.371638 0.818092 0.438874 -0.371638 0.818092 0.438874 
-0.288433 0.634931 0.716707 -0.288433 0.634931 0.716707 -0.288433 0.634931 0.716707 
-0.495794 0.596676 -0.631004 -0.495794 0.596676 -0.631004 -0.495794 0.596676 -0.631004 
-0.0949145 0.427394 0.899069 -0.0949145 0.427394 0.899069 -0.0949145 0.427394 0.899069 
0.249216 -0.374669 -0.893036 0.249216 -0.374669 -0.893036 0.249216 -0.374669 -0.893036 
0.657739 -0.611158 -0.440301 0.657739 -0.611158 -0.440301 0.657739 -0.611158 -0.440301 
0.772327 -0.380567 0.508606 0.772327 -0.380567 0.508606 0.772327 -0.380567 0.508606 
-0.60536 0.782544 0.14548 -0.60536 0.782544 0.14548 -0.60536 0.782544 0.14548 
-0.505511 0.653471 0.563414 -0.505511 0.653471 0.563414 -0.505511 0.653471 0.563414 
-0.284182 0.633865 0.719344 -0.284182 0.633865 0.719344 -0.284182 0.633865 0.719344 
0.0418123 -0.26364 -0.963715 0.0418123 -0.26364 -0.963715 0.0418123 -0.26364 -0.963715 
0.0112353 0.396083 0.918146 0.0112353 0.396083 0.918146 0.0112353 0.396083 0.918146 
-0.0423428 -0.263634 -0.963693 -0.0423428 -0.263634 -0.963693 -0.0423428 -0.263634 -0.963693 
0.261677 -0.459725 -0.848633 0.261677 -0.459725 -0.848633 0.261677 -0.459725 -0.848633 
0.439621 0.0651481 0.895818 0.439621 0.0651481 0.895818 0.439621 0.0651481 0.895818 
0.772282 -0.379335 0.509594 0.772282 -0.379335 0.509594 0.772282 -0.379335 0.509594 
0.650229 -0.573856 -0.497886 0.650229 -0.573856 -0.497886 0.650229 -0.573856 -0.497886 
-0.659206 0.401891 -0.635556 -0.659206 0.401891 -0.635556 -0.659206 0.401891 -0.635556 
-0.17722 -0.0615698 -0.982243 -0.17722 -0.0615698 -0.982243 -0.17722 -0.0615698 -0.982243 
-0.285241 0.619229 0.731569 -0.285241 0.619229 0.731569 -0.285241 0.619229 0.731569 
0.112422 0.478123 0.871068 0.112422 0.478123 0.871068 0.112422 0.478123 0.871068 
0.119025 -0.336086 -0.93428 0.119025 -0.336086 -0.93428 0.119025 -0.336086 -0.93428 
0.378505 0.179967 0.907935 0.378505 0.179967 0.907935 0.378505 0.179967 0.907935 
0.316948 -0.463629 -0.827401 0.316948 -0.463629 -0.827401 0.316948 -0.463629 -0.827401 
-0.657593 0.32693 -0.67874 -0.657593 0.32693 -0.67874 -0.657593 0.32693 -0.67874 