# vtk DataFile Version 4.2
3D Slicer output. SPACE=LPS
ASCII
DATASET POLYDATA
POINTS 2040 double
8.4813070297 -5.8186879158 0.96311283112 6.5998897552 -5.7220225334 1.9051609039 5.6591815948 -5.7826151848 0.96311283112 
3.7777643204 -4.4565734863 -0.92098522186 4.7184724808 -5.38798666 0.021063804626 3.7777643204 -4.9665064812 0.021063804626 
3.7777643204 -4.9665064812 0.021063804626 4.7184724808 -5.38798666 0.021063804626 4.1829814911 -4.9677743912 0.96311283112 
3.7777643204 -4.4565734863 -0.92098522186 6.5998897552 -4.9677743912 -0.80338287354 4.7184724808 -5.38798666 0.021063804626 
4.7184724808 -5.38798666 0.021063804626 5.6591815948 -5.7826151848 0.96311283112 4.1829814911 -4.9677743912 0.96311283112 
5.6591815948 -5.2679848671 1.9051609039 4.1829814911 -4.9677743912 0.96311283112 5.6591815948 -5.7826151848 0.96311283112 
4.7184724808 -5.38798666 0.021063804626 6.5998897552 -4.9677743912 -0.80338287354 6.5998897552 -5.6574201584 0.021063804626 
5.6591815948 -5.7826151848 0.96311283112 6.5998897552 -5.6574201584 0.021063804626 8.4813070297 -5.8186879158 0.96311283112 
5.6591815948 -5.7826151848 0.96311283112 4.7184724808 -5.38798666 0.021063804626 6.5998897552 -5.6574201584 0.021063804626 
6.5998897552 -5.7220225334 1.9051609039 5.6591815948 -5.2679848671 1.9051609039 5.6591815948 -5.7826151848 0.96311283112 
5.6591815948 -5.2679848671 1.9051609039 6.5998897552 -5.7220225334 1.9051609039 7.5405988693 -4.9677743912 2.9757242203 
8.4813070297 -5.8186879158 0.96311283112 8.4813070297 -5.9146614075 1.9051609039 6.5998897552 -5.7220225334 1.9051609039 
6.5998897552 -5.7220225334 1.9051609039 8.4813070297 -5.9146614075 1.9051609039 7.5405988693 -4.9677743912 2.9757242203 
10.362724304 -4.4925694466 0.021063804626 11.303432465 -4.6809134483 0.96311283112 8.4813070297 -5.8186879158 0.96311283112 
10.362724304 -4.4925694466 0.021063804626 8.4813070297 -5.8186879158 0.96311283112 6.5998897552 -5.6574201584 0.021063804626 
8.4813070297 -5.9146614075 1.9051609039 11.303432465 -4.8995046616 2.8472099304 10.362724304 -4.2065215111 3.7892589569 
7.5405988693 -4.9677743912 2.9757242203 8.4813070297 -5.9146614075 1.9051609039 10.362724304 -4.2065215111 3.7892589569 
11.303432465 -4.6809134483 0.96311283112 8.4813070297 -5.9146614075 1.9051609039 8.4813070297 -5.8186879158 0.96311283112 
11.303432465 -4.6809134483 0.96311283112 11.303432465 -5.0269436836 1.9051609039 8.4813070297 -5.9146614075 1.9051609039 
11.303432465 -5.0269436836 1.9051609039 11.303432465 -4.8995046616 2.8472099304 8.4813070297 -5.9146614075 1.9051609039 
1.8963470459 -3.267639637 -0.92098522186 3.7777643204 -4.9665064812 0.021063804626 1.8963470459 -3.4707336426 0.021063804626 
3.7777643204 -4.9665064812 0.021063804626 2.1804676056 -3.0631818771 0.96311283112 1.8963470459 -3.4707336426 0.021063804626 
1.8963470459 -3.267639637 -0.92098522186 3.7777643204 -4.4565734863 -0.92098522186 3.7777643204 -4.9665064812 0.021063804626 
2.1804676056 -3.0631818771 0.96311283112 3.7777643204 -4.9665064812 0.021063804626 4.1829814911 -4.9677743912 0.96311283112 
2.1804676056 -3.0631818771 0.96311283112 4.1829814911 -4.9677743912 0.96311283112 5.6591815948 -5.2679848671 1.9051609039 
2.1804676056 -3.0631818771 0.96311283112 5.6591815948 -5.2679848671 1.9051609039 5.6591815948 -4.0154781342 2.7280254364 
5.6591815948 -4.0154781342 2.7280254364 5.6591815948 -5.2679848671 1.9051609039 7.5405988693 -4.9677743912 2.9757242203 
8.4813070297 -3.0631818771 -1.7894239426 6.5998897552 -5.6574201584 0.021063804626 6.5998897552 -4.9677743912 -0.80338287354 
8.4813070297 -3.0631818771 -1.7894239426 10.362724304 -4.4925694466 0.021063804626 6.5998897552 -5.6574201584 0.021063804626 
0.017825126648 -0.20629310608 0.021063804626 1.8963470459 -3.267639637 -0.92098522186 1.8963470459 -3.4707336426 0.021063804626 
3.7777643204 -3.0631818771 -1.8668146133 3.7777643204 -4.4565734863 -0.92098522186 1.8963470459 -3.267639637 -0.92098522186 
5.6591815948 -3.0631818771 -2.0856308937 3.7777643204 -4.4565734863 -0.92098522186 3.7777643204 -3.0631818771 -1.8668146133 
6.5998897552 -4.9677743912 -0.80338287354 3.7777643204 -4.4565734863 -0.92098522186 5.6591815948 -3.0631818771 -2.0856308937 
5.6591815948 -2.1108856201 3.1444730759 5.6591815948 -4.0154781342 2.7280254364 7.5405988693 -3.0631818771 3.7373485565 
8.4813070297 -3.0631818771 -1.7894239426 6.5998897552 -4.9677743912 -0.80338287354 5.6591815948 -3.0631818771 -2.0856308937 
7.5405988693 -3.0631818771 3.7373485565 5.6591815948 -4.0154781342 2.7280254364 7.5405988693 -4.9677743912 2.9757242203 
10.362724304 -4.4925694466 0.021063804626 8.4813070297 -3.0631818771 -1.7894239426 10.362724304 -3.0631818771 -1.1950950623 
7.5405988693 -3.0631818771 3.7373485565 7.5405988693 -4.9677743912 2.9757242203 10.362724304 -4.2065215111 3.7892589569 
7.5405988693 -3.0631818771 3.7373485565 10.362724304 -4.2065215111 3.7892589569 10.362724304 -3.0631818771 4.2053060532 
10.362724304 -4.2065215111 3.7892589569 11.303432465 -4.8995046616 2.8472099304 14.125557899 -1.1585893631 4.5736627579 
11.303432465 -5.0269436836 1.9051609039 15.066267967 -2.4286899567 2.8472099304 11.303432465 -4.8995046616 2.8472099304 
1.8963470459 -1.1585893631 -1.8892688751 1.8963470459 -3.267639637 -0.92098522186 0.017825126648 -0.20629310608 0.021063804626 
3.7777643204 -3.0631818771 -1.8668146133 1.8963470459 -3.267639637 -0.92098522186 1.8963470459 -1.1585893631 -1.8892688751 
2.1804676056 -3.0631818771 0.96311283112 5.6591815948 -4.0154781342 2.7280254364 1.8963470459 -1.1585893631 1.514667511 
5.6591815948 -2.1108856201 3.1444730759 1.8963470459 -1.1585893631 1.514667511 5.6591815948 -4.0154781342 2.7280254364 
8.4813070297 -3.0631818771 -1.7894239426 5.6591815948 -3.0631818771 -2.0856308937 7.5405988693 0.74600219727 -3.438683033 
14.125557899 -0.20629310608 -1.2096214294 10.362724304 -4.4925694466 0.021063804626 10.362724304 -3.0631818771 -1.1950950623 
10.362724304 -4.2065215111 3.7892589569 14.125557899 -1.1585893631 4.5736627579 10.362724304 -3.0631818771 4.2053060532 
15.066267967 -2.4286899567 2.8472099304 15.066267967 -1.9182929993 3.7892589569 11.303432465 -4.8995046616 2.8472099304 
11.303432465 -4.8995046616 2.8472099304 15.066267967 -1.9182929993 3.7892589569 14.125557899 -1.1585893631 4.5736627579 
16.006977081 -1.0384788513 0.96311283112 11.303432465 -5.0269436836 1.9051609039 11.303432465 -4.6809134483 0.96311283112 
1.8963470459 -3.4707336426 0.021063804626 2.1804676056 -3.0631818771 0.96311283112 0.017825126648 -0.20629310608 0.021063804626 
2.1804676056 -3.0631818771 0.96311283112 1.8963470459 -1.1585893631 1.514667511 0.017825126648 -0.20629310608 0.021063804626 
5.6591815948 -0.20629310608 -3.0782999992 3.7777643204 -3.0631818771 -1.8668146133 1.8963470459 -1.1585893631 -1.8892688751 
5.6591815948 -3.0631818771 -2.0856308937 3.7777643204 -3.0631818771 -1.8668146133 5.6591815948 -0.20629310608 -3.0782999992 
7.5405988693 0.74600219727 -3.438683033 5.6591815948 -3.0631818771 -2.0856308937 5.6591815948 -0.20629310608 -3.0782999992 
7.5405988693 -3.0631818771 3.7373485565 11.303432465 0.74600219727 4.4796953201 5.6591815948 -2.1108856201 3.1444730759 
11.303432465 0.74600219727 -2.8626999855 8.4813070297 -3.0631818771 -1.7894239426 7.5405988693 0.74600219727 -3.438683033 
10.362724304 -3.0631818771 4.2053060532 11.303432465 0.74600219727 4.4796953201 7.5405988693 -3.0631818771 3.7373485565 
10.362724304 -3.0631818771 -1.1950950623 8.4813070297 -3.0631818771 -1.7894239426 11.303432465 0.74600219727 -2.8626999855 
11.303432465 0.74600219727 -2.8626999855 14.125557899 -0.20629310608 -1.2096214294 10.362724304 -3.0631818771 -1.1950950623 
14.125557899 -0.20629310608 -1.2096214294 16.947685242 0.78809642792 0.021063804626 10.362724304 -4.4925694466 0.021063804626 
10.362724304 -4.4925694466 0.021063804626 16.947685242 0.78809642792 0.021063804626 11.303432465 -4.6809134483 0.96311283112 
16.947685242 0.78809642792 0.021063804626 16.006977081 -1.0384788513 0.96311283112 11.303432465 -4.6809134483 0.96311283112 
16.006977081 -1.0384788513 0.96311283112 15.066267967 -2.4286899567 2.8472099304 11.303432465 -5.0269436836 1.9051609039 
17.404823303 -0.20629310608 2.8472099304 15.066267967 -2.4286899567 2.8472099304 16.006977081 -1.0384788513 0.96311283112 
15.066267967 -2.4286899567 2.8472099304 17.404823303 -0.20629310608 2.8472099304 15.066267967 -1.9182929993 3.7892589569 
1.6619749069 0.74600219727 -1.8630342484 1.8963470459 -1.1585893631 -1.8892688751 0.017825126648 -0.20629310608 0.021063804626 
1.8963470459 -1.1585893631 1.514667511 1.8963470459 0.74600219727 1.6909322739 0.017825126648 -0.20629310608 0.021063804626 
3.7777643204 1.6982984543 -2.8594613075 1.8963470459 -1.1585893631 -1.8892688751 1.6619749069 0.74600219727 -1.8630342484 
5.6591815948 -2.1108856201 3.1444730759 1.8963470459 0.74600219727 1.6909322739 1.8963470459 -1.1585893631 1.514667511 
11.303432465 0.74600219727 4.4796953201 10.362724304 -3.0631818771 4.2053060532 14.125557899 -1.1585893631 4.5736627579 
16.006977081 -1.0384788513 0.96311283112 16.947685242 0.78809642792 0.021063804626 17.74703598 0.74600219727 0.96311283112 
17.404823303 -0.20629310608 2.8472099304 16.006977081 -1.0384788513 0.96311283112 17.74703598 0.74600219727 0.96311283112 
1.2264289856 2.6505947113 -0.92098522186 1.6619749069 0.74600219727 -1.8630342484 0.017825126648 -0.20629310608 0.021063804626 
5.6591815948 -0.20629310608 -3.0782999992 1.8963470459 -1.1585893631 -1.8892688751 3.7777643204 1.6982984543 -2.8594613075 
5.6591815948 -2.1108856201 3.1444730759 6.5998897552 1.6982984543 3.1610336304 1.8963470459 0.74600219727 1.6909322739 
6.5998897552 1.6982984543 3.1610336304 5.6591815948 -2.1108856201 3.1444730759 11.303432465 0.74600219727 4.4796953201 
14.125557899 -1.1585893631 4.5736627579 15.066267967 1.6982984543 4.5237989426 11.303432465 0.74600219727 4.4796953201 
16.947685242 0.78809642792 0.021063804626 14.125557899 -0.20629310608 -1.2096214294 15.066267967 1.6982984543 -1.7634224892 
[...]
CELL_DATA 680
FIELD FieldData 1
GroupIds 1 680 float
0 0 0 0 0 0 0 0 0 
0 0 0 0 0 0 0 0 0 
0 0 0 0 0 0 0 0 0 
0 0 0 0 0 0 0 0 0 
0 0 0 0 0 0 0 0 0 
0 0 0 0 0 0 0 0 0 
0 0 0 0 0 0 0 0 0 
0 0 0 0 0 0 0 0 0 
0 0 0 0 0 0 0 0 0 
0 0 0 0 0 0 0 0 0 
0 0 0 0 0 0 0 0 0 
0 0 0 0 0 0 0 0 0 
0 0 0 0 0 0 0 0 0 
0 0 0 0 0 0 0 0 0 
0 0 0 0 0 0 0 0 0 
0 0 0 0 0 0 0 0 0 
0 0 0 0 0 0 0 0 0 
0 0 0 0 0 0 0 0 0 
0 0 0 0 0 0 0 0 0 
0 0 0 0 0 0 0 0 0 
0 0 0 0 0 0 0 0 0 
0 0 0 0 0 0 0 0 0 
0 0 0 0 0 0 0 0 0 
0 0 0 0 0 0 0 0 0 
0 0 0 0 0 0 0 0 0 
0 0 0 0 0 0 0 0 0 
0 0 0 0 0 0 0 0 0 
0 0 0 0 0 0 0 0 0 
0 0 0 0 0 0 0 0 0 
0 0 0 0 0 0 0 0 0 
0 0 0 0 0 0 0 0 0 
0 0 0 0 0 0 0 0 0 
0 0 0 0 0 0 0 0 0 
0 0 0 0 0 0 0 0 0 
0 0 0 0 0 0 0 0 0 
0 0 0 0 0 0 0 0 0 
0 0 0 0 0 0 0 0 0 
0 0 0 0 0 0 0 0 0 
0 0 0 0 0 0 0 0 0 
0 0 0 0 0 0 0 0 0 
0 0 0 0 0 0 0 0 0 
0 0 0 0 0 0 0 0 0 
0 0 0 0 0 0 0 0 0 
0 0 0 0 0 0 0 0 0 
0 0 0 0 0 0 0 0 0 
0 0 0 0 0 0 0 0 0 
0 0 0 0 0 0 0 0 0 
0 0 0 0 0 0 0 0 0 
0 0 0 0 0 0 0 0 0 
0 0 0 0 0 0 0 0 0 
0 0 0 0 0 0 0 0 0 
0 0 0 0 0 0 0 0 0 
0 0 0 0 0 0 0 0 0 
0 0 0 0 0 0 0 0 0 
0 0 0 0 0 0 0 0 0 
0 0 0 0 0 0 0 0 0 
0 0 0 0 0 0 0 0 0 
0 0 0 0 0 0 0 0 0 
0 0 0 0 0 0 0 0 0 
0 0 0 0 0 0 0 0 0 
0 0 0 0 0 0 0 0 0 
0 0 0 0 0 0 0 0 0 
0 0 0 0 0 0 0 0 0 
0 0 0 0 0 0 0 0 0 
0 0 0 0 0 0 0 0 0 
0 0 0 0 0 0 0 0 0 
0 0 0 0 0 0 0 0 0 
0 0 0 0 0 0 0 0 0 
0 0 0 0 0 0 0 0 0 
0 0 0 0 0 0 0 0 0 
0 0 0 0 0 0 0 0 0 
0 0 0 0 0 0 0 0 0 
0 0 0 0 0 0 0 0 0 
0 0 0 0 0 0 0 0 0 
0 0 0 0 0 0 0 0 0 
0 0 0 0 0 
POINT_DATA 2040
NORMALS Normals float
-0.0127433 -0.996961 0.0768498 -0.0127433 -0.996961 0.0768498 -0.0127433 -0.996961 0.0768498 
-0.366592 -0.818202 -0.442894 -0.366592 -0.818202 -0.442894 -0.366592 -0.818202 -0.442894 
-0.402784 -0.89898 0.172045 -0.402784 -0.89898 0.172045 -0.402784 -0.89898 0.172045 
-0.110956 -0.75989 -0.640513 -0.110956 -0.75989 -0.640513 -0.110956 -0.75989 -0.640513 
-0.480044 -0.869667 0.115053 -0.480044 -0.869667 0.115053 -0.480044 -0.869667 0.115053 
-0.435958 -0.7898 0.431459 -0.435958 -0.7898 0.431459 -0.435958 -0.7898 0.431459 
-0.109187 -0.762441 -0.637779 -0.109187 -0.762441 -0.637779 -0.109187 -0.762441 -0.637779 
-0.0126476 -0.989478 -0.144128 -0.0126476 -0.989478 -0.144128 -0.0126476 -0.989478 -0.144128 
-0.136753 -0.954927 -0.263465 -0.136753 -0.954927 -0.263465 -0.136753 -0.954927 -0.263465 
-0.390027 -0.808086 0.441448 -0.390027 -0.808086 0.441448 -0.390027 -0.808086 0.441448 
-0.304844 -0.631598 0.71285 -0.304844 -0.631598 0.71285 -0.304844 -0.631598 0.71285 
-0.101339 -0.989729 -0.100831 -0.101339 -0.989729 -0.100831 -0.101339 -0.989729 -0.100831 
-0.0799115 -0.780459 0.620079 -0.0799115 -0.780459 0.620079 -0.0799115 -0.780459 0.620079 
0.32641 -0.809625 -0.487814 0.32641 -0.809625 -0.487814 0.32641 -0.809625 -0.487814 
0.236108 -0.762703 -0.60211 0.236108 -0.762703 -0.60211 0.236108 -0.762703 -0.60211 
0.0660267 -0.77116 0.633208 0.0660267 -0.77116 0.633208 0.0660267 -0.77116 0.633208 
0.00878571 -0.745176 0.66681 0.00878571 -0.745176 0.66681 0.00878571 -0.745176 0.66681 
0.37226 -0.923349 -0.0940685 0.37226 -0.923349 -0.0940685 0.37226 -0.923349 -0.0940685 
0.283181 -0.900255 -0.330679 0.283181 -0.900255 -0.330679 0.283181 -0.900255 -0.330679 
0.297594 -0.946075 0.127984 0.297594 -0.946075 0.127984 0.297594 -0.946075 0.127984 
-0.613641 -0.771852 -0.166402 -0.613641 -0.771852 -0.166402 -0.613641 -0.771852 -0.166402 
-0.550696 -0.692678 0.465758 -0.550696 -0.692678 0.465758 -0.550696 -0.692678 0.465758 
-0.485766 -0.768697 -0.416097 -0.485766 -0.768697 -0.416097 -0.485766 -0.768697 -0.416097 
-0.660923 -0.694903 0.283357 -0.660923 -0.694903 0.283357 -0.660923 -0.694903 0.283357 
-0.525359 -0.552369 0.647215 -0.525359 -0.552369 0.647215 -0.525359 -0.552369 0.647215 
-0.498038 -0.476137 0.724743 -0.498038 -0.476137 0.724743 -0.498038 -0.476137 0.724743 
-0.36169 -0.511906 0.779187 -0.36169 -0.511906 0.779187 -0.36169 -0.511906 0.779187 
0.402898 -0.702018 -0.587234 0.402898 -0.702018 -0.587234 0.402898 -0.702018 -0.587234 
0.202778 -0.655038 -0.727878 0.202778 -0.655038 -0.727878 0.202778 -0.655038 -0.727878 
-0.86177 -0.495906 -0.106911 -0.86177 -0.495906 -0.106911 -0.86177 -0.495906 -0.106911 
-0.334472 -0.529282 -0.779736 -0.334472 -0.529282 -0.779736 -0.334472 -0.529282 -0.779736 
-0.0957862 -0.559047 -0.823585 -0.0957862 -0.559047 -0.823585 -0.0957862 -0.559047 -0.823585 
-0.0714768 -0.581094 -0.810692 -0.0714768 -0.581094 -0.810692 -0.0714768 -0.581094 -0.810692 
-0.384066 -0.197225 0.901995 -0.384066 -0.197225 0.901995 -0.384066 -0.197225 0.901995 
0.0887967 -0.525713 -0.846015 0.0887967 -0.525713 -0.846015 0.0887967 -0.525713 -0.846015 
-0.296257 -0.354633 0.88683 -0.296257 -0.354633 0.88683 -0.296257 -0.354633 0.88683 
0.233919 -0.630035 -0.740498 0.233919 -0.630035 -0.740498 0.233919 -0.630035 -0.740498 
-0.165204 -0.366199 0.915754 -0.165204 -0.366199 0.915754 -0.165204 -0.366199 0.915754 
-0.153964 -0.337874 0.928513 -0.153964 -0.337874 0.928513 -0.153964 -0.337874 0.928513 
0.317549 -0.584244 0.746875 0.317549 -0.584244 0.746875 0.317549 -0.584244 0.746875 
0.545406 -0.830606 0.112363 0.545406 -0.830606 0.112363 0.545406 -0.830606 0.112363 
-0.750522 -0.275729 -0.600574 -0.750522 -0.275729 -0.600574 -0.750522 -0.275729 -0.600574 
-0.380564 -0.385842 -0.840415 -0.380564 -0.385842 -0.840415 -0.380564 -0.385842 -0.840415 
-0.496221 -0.308986 0.811352 -0.496221 -0.308986 0.811352 -0.496221 -0.308986 0.811352 
-0.430673 -0.192783 0.881678 -0.430673 -0.192783 0.881678 -0.430673 -0.192783 0.881678 
0.0967576 -0.375243 -0.921863 0.0967576 -0.375243 -0.921863 0.0967576 -0.375243 -0.921863 
0.439332 -0.582126 -0.684191 0.439332 -0.582126 -0.684191 0.439332 -0.582126 -0.684191 
0.0808244 -0.340833 0.936643 0.0808244 -0.340833 0.936643 0.0808244 -0.340833 0.936643 
0.499996 -0.76145 0.41255 0.499996 -0.76145 0.41255 0.499996 -0.76145 0.41255 
0.230811 -0.545849 0.805465 0.230811 -0.545849 0.805465 0.230811 -0.545849 0.805465 
0.587982 -0.759273 -0.278894 0.587982 -0.759273 -0.278894 0.587982 -0.759273 -0.278894 
-0.782242 -0.450141 0.430664 -0.782242 -0.450141 0.430664 -0.782242 -0.450141 0.430664 
-0.681843 -0.295498 0.669157 -0.681843 -0.295498 0.669157 -0.681843 -0.295498 0.669157 
-0.235578 -0.243803 -0.940778 -0.235578 -0.243803 -0.940778 -0.235578 -0.243803 -0.940778 
-0.109204 -0.326253 -0.938953 -0.109204 -0.326253 -0.938953 -0.109204 -0.326253 -0.938953 
-0.0148063 -0.32818 -0.944499 -0.0148063 -0.32818 -0.944499 -0.0148063 -0.32818 -0.944499 
-0.265171 0.0746002 0.961311 -0.265171 0.0746002 0.961311 -0.265171 0.0746002 0.961311 
0.140938 -0.363844 -0.920735 0.140938 -0.363844 -0.920735 0.140938 -0.363844 -0.920735 
-0.163507 -0.0306506 0.986066 -0.163507 -0.0306506 0.986066 -0.163507 -0.0306506 0.986066 
0.270298 -0.441347 -0.855659 0.270298 -0.441347 -0.855659 0.270298 -0.441347 -0.855659 
0.335489 -0.446094 -0.829727 0.335489 -0.446094 -0.829727 0.335489 -0.446094 -0.829727 
0.487505 -0.607916 -0.62672 0.487505 -0.607916 -0.62672 0.487505 -0.607916 -0.62672 
0.49313 -0.614931 -0.615372 0.49313 -0.614931 -0.615372 0.49313 -0.614931 -0.615372 
0.450233 -0.581394 -0.677696 0.450233 -0.581394 -0.677696 0.450233 -0.581394 -0.677696 
0.591943 -0.760867 -0.265867 0.591943 -0.760867 -0.265867 0.591943 -0.760867 -0.265867 
0.676653 -0.71202 -0.18753 0.676653 -0.71202 -0.18753 0.676653 -0.71202 -0.18753 
0.641198 -0.674711 0.365555 0.641198 -0.674711 0.365555 0.641198 -0.674711 0.365555 
-0.730482 -0.0805492 -0.678165 -0.730482 -0.0805492 -0.678165 -0.730482 -0.0805492 -0.678165 
-0.642486 -0.070617 0.763037 -0.642486 -0.070617 0.763037 -0.642486 -0.070617 0.763037 
-0.411661 -0.0381154 -0.910539 -0.411661 -0.0381154 -0.910539 -0.411661 -0.0381154 -0.910539 
-0.413853 -0.0838914 0.90647 -0.413853 -0.0838914 0.90647 -0.413853 -0.0838914 0.90647 
-0.0699327 -0.0544796 0.996063 -0.0699327 -0.0544796 0.996063 -0.0699327 -0.0544796 0.996063 
0.603389 -0.588368 -0.53828 0.603389 -0.588368 -0.53828 0.603389 -0.588368 -0.53828 
0.698824 -0.681427 -0.217491 0.698824 -0.681427 -0.217491 0.698824 -0.681427 -0.217491 
-0.778173 0.126342 -0.615211 -0.778173 0.126342 -0.615211 -0.778173 0.126342 -0.615211 
-0.263078 -0.150379 -0.952983 -0.263078 -0.150379 -0.952983 -0.263078 -0.150379 -0.952983 
-0.310904 0.0726602 0.94766 -0.310904 0.0726602 0.94766 -0.310904 0.0726602 0.94766 
-0.258264 0.0595882 0.964235 -0.258264 0.0595882 0.964235 -0.258264 0.0595882 0.964235 
-0.0175977 0.023241 0.999575 -0.0175977 0.023241 0.999575 -0.0175977 0.023241 0.999575 
0.485892 -0.456679 -0.74522 0.485892 -0.456679 -0.74522 0.485892 -0.456679 -0.74522 
0.59923 -0.456732 0.65751 0.59923 -0.456732 0.65751 0.59923 -0.456732 0.65751 
0.435897 -0.326285 0.838768 0.435897 -0.326285 0.838768 0.435897 -0.326285 0.838768 
-0.927329 0.342755 -0.150268 -0.927329 0.342755 -0.150268 -0.927329 0.342755 -0.150268 
-0.695721 0.135402 0.705435 -0.695721 0.135402 0.705435 -0.695721 0.135402 0.705435 
-0.22938 -0.115543 -0.966455 -0.22938 -0.115543 -0.966455 -0.22938 -0.115543 -0.966455 
-0.326232 0.178187 0.928344 -0.326232 0.178187 0.928344 -0.326232 0.178187 0.928344 
0.14605 -0.261363 -0.954127 0.14605 -0.261363 -0.954127 0.14605 -0.261363 -0.954127 
-0.0726018 0.242064 0.96754 -0.0726018 0.242064 0.96754 -0.0726018 0.242064 0.96754 
0.379603 -0.356779 -0.853587 0.379603 -0.356779 -0.853587 0.379603 -0.356779 -0.853587 
0.313187 -0.404527 -0.859227 0.313187 -0.404527 -0.859227 0.313187 -0.404527 -0.859227 
0.270218 -0.0722196 0.960087 0.270218 -0.0722196 0.960087 0.270218 -0.0722196 0.960087 
0.785947 -0.597442 -0.159217 0.785947 -0.597442 -0.159217 0.785947 -0.597442 -0.159217 
-0.761636 0.138894 -0.632945 -0.761636 0.138894 -0.632945 -0.761636 0.138894 -0.632945 
-0.807305 0.298393 0.509137 -0.807305 0.298393 0.509137 -0.807305 0.298393 0.509137 
-0.499368 0.122658 -0.857663 -0.499368 0.122658 -0.857663 -0.499368 0.122658 -0.857663 
-0.452202 0.0747242 -0.88878 -0.452202 0.0747242 -0.88878 -0.452202 0.0747242 -0.88878 
-0.099375 -0.0983767 -0.990175 -0.099375 -0.0983767 -0.990175 -0.099375 -0.0983767 -0.990175 
-0.129022 -0.117716 -0.98463 -0.129022 -0.117716 -0.98463 -0.129022 -0.117716 -0.98463 
-0.217499 0.236894 0.946877 -0.217499 0.236894 0.946877 -0.217499 0.236894 0.946877 
0.270912 -0.00996322 0.962553 0.270912 -0.00996322 0.962553 0.270912 -0.00996322 0.962553 
0.631519 -0.536446 -0.559829 0.631519 -0.536446 -0.559829 0.631519 -0.536446 -0.559829 
0.791861 -0.550263 -0.264888 0.791861 -0.550263 -0.264888 0.791861 -0.550263 -0.264888 
0.746813 -0.426133 0.510569 0.746813 -0.426133 0.510569 0.746813 -0.426133 0.510569 
0.816973 -0.445847 0.365753 0.816973 -0.445847 0.365753 0.816973 -0.445847 0.365753 
-0.613985 0.515393 0.597823 -0.613985 0.515393 0.597823 -0.613985 0.515393 0.597823 
-0.37957 0.0478751 -0.923924 -0.37957 0.0478751 -0.923924 -0.37957 0.0478751 -0.923924 
-0.291108 0.308077 0.905729 -0.291108 0.308077 0.905729 -0.291108 0.308077 0.905729 
-0.232022 0.340056 0.911333 -0.232022 0.340056 0.911333 -0.232022 0.340056 0.911333 
0.124306 -0.205946 -0.970636 0.124306 -0.205946 -0.970636 0.124306 -0.205946 -0.970636 
-0.228727 0.352349 0.907488 -0.228727 0.352349 0.907488 -0.228727 0.352349 0.907488 
-0.115636 0.359515 0.925947 -0.115636 0.359515 0.925947 -0.115636 0.359515 0.925947 
-0.0575062 0.2943 0.953982 -0.0575062 0.2943 0.953982 -0.0575062 0.2943 0.953982 
0.319706 0.0164036 0.947375 0.319706 0.0164036 0.947375 0.319706 0.0164036 0.947375 
0.504144 -0.428247 -0.749962 0.504144 -0.428247 -0.749962 0.504144 -0.428247 -0.749962 
0.588077 -0.0904131 0.803736 0.588077 -0.0904131 0.803736 0.588077 -0.0904131 0.803736 
-0.823583 0.476596 -0.307517 -0.823583 0.476596 -0.307517 -0.823583 0.476596 -0.307517 
-0.769406 0.404353 -0.494483 -0.769406 0.404353 -0.494483 -0.769406 0.404353 -0.494483 
-0.702643 0.406609 -0.583919 -0.702643 0.406609 -0.583919 -0.702643 0.406609 -0.583919 
-0.760666 0.63852 0.116957 -0.760666 0.63852 0.116957 -0.760666 0.63852 0.116957 
-0.564587 0.276984 -0.77751 -0.564587 0.276984 -0.77751 -0.564587 0.276984 -0.77751 
-0.349688 0.513119 0.783854 -0.349688 0.513119 0.783854 -0.349688 0.513119 0.783854 
-0.312876 0.467509 0.826767 -0.312876 0.467509 0.826767 -0.312876 0.467509 0.826767 
-0.2143 0.480787 0.850247 -0.2143 0.480787 0.850247 -0.2143 0.480787 0.850247 
0.191235 -0.108732 -0.975503 0.191235 -0.108732 -0.975503 0.191235 -0.108732 -0.975503 
0.226295 -0.273053 -0.935004 0.226295 -0.273053 -0.935004 0.226295 -0.273053 -0.935004 
0.434753 -0.0997595 -0.895007 0.434753 -0.0997595 -0.895007 0.434753 -0.0997595 -0.895007 
0.431113 -0.100864 0.896643 0.431113 -0.100864 0.896643 0.431113 -0.100864 0.896643 
0.738601 -0.597442 -0.312301 0.738601 -0.597442 -0.312301 0.738601 -0.597442 -0.312301 
0.843311 -0.520729 0.132924 0.843311 -0.520729 0.132924 0.843311 -0.520729 0.132924 
0.83261 -0.409653 0.372754 0.83261 -0.409653 0.372754 0.83261 -0.409653 0.372754 
0.730648 -0.451162 0.512451 0.730648 -0.451162 0.512451 0.730648 -0.451162 0.512451 
-0.307878 0.127362 -0.942863 -0.307878 0.127362 -0.942863 -0.307878 0.127362 -0.942863 
-0.142643 0.0741697 -0.986991 -0.142643 0.0741697 -0.986991 -0.142643 0.0741697 -0.986991 
-0.034982 0.290517 0.95623 -0.034982 0.290517 0.95623 -0.034982 0.290517 0.95623 
0.421952 -0.352491 -0.835288 0.421952 -0.352491 -0.835288 0.421952 -0.352491 -0.835288 
0.517244 -0.488984 -0.702392 0.517244 -0.488984 -0.702392 0.517244 -0.488984 -0.702392 
0.739353 -0.52245 -0.424739 0.739353 -0.52245 -0.424739 0.739353 -0.52245 -0.424739 
-0.500042 0.847453 0.178275 -0.500042 0.847453 0.178275 -0.500042 0.847453 0.178275 
-0.339141 0.574764 0.744735 -0.339141 0.574764 0.744735 -0.339141 0.574764 0.744735 
-0.509299 0.356228 -0.7834 -0.509299 0.356228 -0.7834 -0.509299 0.356228 -0.7834 
-0.124119 0.722198 0.680459 -0.124119 0.722198 0.680459 -0.124119 0.722198 0.680459 
-0.10181 0.134299 -0.985697 -0.10181 0.134299 -0.985697 -0.10181 0.134299 -0.985697 
-0.182819 0.775219 0.60466 -0.182819 0.775219 0.60466 -0.182819 0.775219 0.60466 
-0.130203 0.624652 0.769972 -0.130203 0.624652 0.769972 -0.130203 0.624652 0.769972 
-0.276493 0.513665 0.812219 -0.276493 0.513665 0.812219 -0.276493 0.513665 0.812219 
0.110735 0.134171 -0.984752 0.110735 0.134171 -0.984752 0.110735 0.134171 -0.984752 
-0.260722 0.603223 0.753755 -0.260722 0.603223 0.753755 -0.260722 0.603223 0.753755 
-0.195512 0.478277 0.85617 -0.195512 0.478277 0.85617 -0.195512 0.478277 0.85617 
0.232481 -0.152548 -0.960563 0.232481 -0.152548 -0.960563 0.232481 -0.152548 -0.960563 
-0.071167 0.279046 0.957637 -0.071167 0.279046 0.957637 -0.071167 0.279046 0.957637 
0.293555 0.0720682 0.953222 0.293555 0.0720682 0.953222 0.293555 0.0720682 0.953222 
0.693236 -0.489862 -0.528639 0.693236 -0.489862 -0.528639 0.693236 -0.489862 -0.528639 
0.869247 -0.458589 -0.184678 0.869247 -0.458589 -0.184678 0.869247 -0.458589 -0.184678 
0.875989 -0.462146 0.138075 0.875989 -0.462146 0.138075 0.875989 -0.462146 0.138075 
-0.606874 0.692519 -0.390027 -0.606874 0.692519 -0.390027 -0.606874 0.692519 -0.390027 
-0.506893 0.838459 0.200116 -0.506893 0.838459 0.200116 -0.506893 0.838459 0.200116 
-0.510538 0.497507 -0.701312 -0.510538 0.497507 -0.701312 -0.510538 0.497507 -0.701312 
-0.5431 0.619744 -0.566533 -0.5431 0.619744 -0.566533 -0.5431 0.619744 -0.566533 
-0.154569 0.89937 0.408951 -0.154569 0.89937 0.408951 -0.154569 0.89937 0.408951 
-0.0262139 0.675995 -0.73644 -0.0262139 0.675995 -0.73644 -0.0262139 0.675995 -0.73644 
-0.0839458 0.576551 -0.812737 -0.0839458 0.576551 -0.812737 -0.0839458 0.576551 -0.812737 
-0.0770626 0.647944 -0.75778 -0.0770626 0.647944 -0.75778 -0.0770626 0.647944 -0.75778 
-0.28471 0.755874 0.589571 -0.28471 0.755874 0.589571 -0.28471 0.755874 0.589571 
-0.353105 0.816966 0.455943 -0.353105 0.816966 0.455943 -0.353105 0.816966 0.455943 
0.162734 0.296899 -0.94094 0.162734 0.296899 -0.94094 0.162734 0.296899 -0.94094 
-0.111933 0.299019 -0.94766 -0.111933 0.299019 -0.94766 -0.111933 0.299019 -0.94766 
-0.20908 0.343498 0.915585 -0.20908 0.343498 0.915585 -0.20908 0.343498 0.915585 
0.432894 -0.0444703 0.900347 0.432894 -0.0444703 0.900347 0.432894 -0.0444703 0.900347 
0.215947 0.100803 0.971188 0.215947 0.100803 0.971188 0.215947 0.100803 0.971188 
0.690953 -0.227144 0.686287 0.690953 -0.227144 0.686287 0.690953 -0.227144 0.686287 
0.500411 -0.0740935 0.862612 0.500411 -0.0740935 0.862612 0.500411 -0.0740935 0.862612 
-0.0942077 0.986681 -0.132612 -0.0942077 0.986681 -0.132612 -0.0942077 0.986681 -0.132612 
-0.0376145 0.969992 -0.240211 -0.0376145 0.969992 -0.240211 -0.0376145 0.969992 -0.240211 
-0.0900222 0.942844 0.320845 -0.0900222 0.942844 0.320845 -0.0900222 0.942844 0.320845 
-0.335868 0.891694 0.303439 -0.335868 0.891694 0.303439 -0.335868 0.891694 0.303439 
-0.0874639 0.735399 -0.671966 -0.0874639 0.735399 -0.671966 -0.0874639 0.735399 -0.671966 
-0.267234 0.935377 -0.231639 -0.267234 0.935377 -0.231639 -0.267234 0.935377 -0.231639 
-0.271565 0.950536 0.150776 -0.271565 0.950536 0.150776 -0.271565 0.950536 0.150776 
-0.0806565 0.0165033 -0.996605 -0.0806565 0.0165033 -0.996605 -0.0806565 0.0165033 -0.996605 
0.423731 -0.380336 -0.822068 0.423731 -0.380336 -0.822068 0.423731 -0.380336 -0.822068 
0.838818 -0.275753 0.469409 0.838818 -0.275753 0.469409 0.838818 -0.275753 0.469409 
-0.60268 0.589093 -0.538281 -0.60268 0.589093 -0.538281 -0.60268 0.589093 -0.538281 
-0.144931 0.146832 -0.978486 -0.144931 0.146832 -0.978486 -0.144931 0.146832 -0.978486 
-0.571219 0.57871 -0.582069 -0.571219 0.57871 -0.582069 -0.571219 0.57871 -0.582069 
-0.502637 0.540167 0.674963 -0.502637 0.540167 0.674963 -0.502637 0.540167 0.674963 
-0.121054 -0.0238127 -0.99236 -0.121054 -0.0238127 -0.99236 -0.121054 -0.0238127 -0.99236 
-0.209178 0.34364 0.915509 -0.209178 0.34364 0.915509 -0.209178 0.34364 0.915509 
0.11337 -0.195027 -0.974224 0.11337 -0.195027 -0.974224 0.11337 -0.195027 -0.974224 
0.0567361 -0.111607 -0.992131 0.0567361 -0.111607 -0.992131 0.0567361 -0.111607 -0.992131 
-0.0125821 0.210667 0.977477 -0.0125821 0.210667 0.977477 -0.0125821 0.210667 0.977477 
0.67077 -0.403105 -0.622554 0.67077 -0.403105 -0.622554 0.67077 -0.403105 -0.622554 
0.837971 -0.410657 -0.359395 0.837971 -0.410657 -0.359395 0.837971 -0.410657 -0.359395 
0.687291 -0.413034 -0.597523 0.687291 -0.413034 -0.597523 0.687291 -0.413034 -0.597523 
0.88206 -0.432263 -0.187401 0.88206 -0.432263 -0.187401 0.88206 -0.432263 -0.187401 
-0.547644 0.563852 0.618189 -0.547644 0.563852 0.618189 -0.547644 0.563852 0.618189 
-0.511427 0.552887 0.657844 -0.511427 0.552887 0.657844 -0.511427 0.552887 0.657844 
0.349714 -0.27623 -0.895208 0.349714 -0.27623 -0.895208 0.349714 -0.27623 -0.895208 
0.788411 -0.133098 0.600577 0.788411 -0.133098 0.600577 0.788411 -0.133098 0.600577 
0.821005 0.484059 -0.302718 0.821005 0.484059 -0.302718 0.821005 0.484059 -0.302718 
-0.692255 0.712742 0.113056 -0.692255 0.712742 0.113056 -0.692255 0.712742 0.113056 
-0.705518 0.689613 0.163331 -0.705518 0.689613 0.163331 -0.705518 0.689613 0.163331 
-0.460125 0.224399 -0.859029 -0.460125 0.224399 -0.859029 -0.460125 0.224399 -0.859029 
-0.158831 0.014249 -0.987203 -0.158831 0.014249 -0.987203 -0.158831 0.014249 -0.987203 
0.0151965 -0.131984 -0.991135 0.0151965 -0.131984 -0.991135 0.0151965 -0.131984 -0.991135 
0.286812 -0.192251 -0.938498 0.286812 -0.192251 -0.938498 0.286812 -0.192251 -0.938498 
0.347691 -0.281139 -0.894467 0.347691 -0.281139 -0.894467 0.347691 -0.281139 -0.894467 
-0.499867 0.290434 0.815954 -0.499867 0.290434 0.815954 -0.499867 0.290434 0.815954 
0.907987 -0.319278 -0.271334 0.907987 -0.319278 -0.271334 0.907987 -0.319278 -0.271334 
0.864456 -0.303971 0.400397 0.864456 -0.303971 0.400397 0.864456 -0.303971 0.400397 
0.791153 -0.311625 0.526276 0.791153 -0.311625 0.526276 0.791153 -0.311625 0.526276 
-0.695944 0.112915 -0.709163 -0.695944 0.112915 -0.709163 -0.695944 0.112915 -0.709163 
-0.904393 0.371802 0.209372 -0.904393 0.371802 0.209372 -0.904393 0.371802 0.209372 