# vtk DataFile Version 4.2
3D Slicer output. SPACE=LPS
ASCII
DATASET POLYDATA
POINTS 2124 double
5.7213368416 -5.832113266 1.4728364944 6.6655535698 -5.7113137245 0.50848197937 7.609770298 -5.9612374306 1.4728364944 
3.8329033852 -4.7331342697 -0.45587253571 6.6655535698 -5.7113137245 0.50848197937 5.7213368416 -5.832113266 1.4728364944 
4.4646964073 -4.1300468445 2.4371910095 3.8329033852 -4.7331342697 -0.45587253571 5.7213368416 -5.832113266 1.4728364944 
4.4646964073 -4.1300468445 2.4371910095 5.7213368416 -5.832113266 1.4728364944 6.6655535698 -5.0718202591 3.1923761368 
7.609770298 -5.9612374306 1.4728364944 6.6655535698 -5.0718202591 3.1923761368 5.7213368416 -5.832113266 1.4728364944 
7.609770298 -5.9612374306 1.4728364944 7.609770298 -5.9507212639 2.4371910095 6.6655535698 -5.0718202591 3.1923761368 
8.5539855957 -5.5036635399 3.4015455246 6.6655535698 -5.0718202591 3.1923761368 7.609770298 -5.9507212639 2.4371910095 
6.6655535698 -5.7113137245 0.50848197937 9.4982032776 -5.0718202591 0.68544006348 7.609770298 -5.9612374306 1.4728364944 
9.4982032776 -5.0718202591 0.68544006348 11.386636734 -5.0602288246 2.4371910095 7.609770298 -5.9612374306 1.4728364944 
7.609770298 -5.9612374306 1.4728364944 11.386636734 -5.0602288246 2.4371910095 7.609770298 -5.9507212639 2.4371910095 
11.386636734 -5.0602288246 2.4371910095 8.5539855957 -5.5036635399 3.4015455246 7.609770298 -5.9507212639 2.4371910095 
11.386636734 -5.0602288246 2.4371910095 10.442419052 -5.3900346756 3.4015455246 8.5539855957 -5.5036635399 3.4015455246 
11.386636734 -5.0602288246 2.4371910095 9.4982032776 -5.0718202591 0.68544006348 11.386636734 -4.6155490875 1.4728364944 
3.8329033852 -4.7331342697 -0.45587253571 4.4646964073 -4.1300468445 2.4371910095 2.3819789886 -4.1300468445 0.50848197937 
3.8329033852 -4.7331342697 -0.45587253571 6.6655535698 -3.1882734299 -1.5411567688 6.6655535698 -5.7113137245 0.50848197937 
6.6655535698 -5.7113137245 0.50848197937 6.6655535698 -3.1882734299 -1.5411567688 8.5539855957 -4.1300468445 -0.61320304871 
6.6655535698 -5.0718202591 3.1923761368 8.5539855957 -5.5036635399 3.4015455246 9.4982032776 -3.1882734299 4.8190994263 
8.5539855957 -4.1300468445 -0.61320304871 9.4982032776 -5.0718202591 0.68544006348 6.6655535698 -5.7113137245 0.50848197937 
9.4982032776 -3.1882734299 4.8190994263 8.5539855957 -5.5036635399 3.4015455246 10.442419052 -4.1300468445 4.6487731934 
10.442419052 -5.3900346756 3.4015455246 10.442419052 -4.1300468445 4.6487731934 8.5539855957 -5.5036635399 3.4015455246 
9.4982032776 -5.0718202591 0.68544006348 8.5539855957 -4.1300468445 -0.61320304871 14.219285965 -1.8998622894 0.50848197937 
9.4982032776 -5.0718202591 0.68544006348 14.219285965 -1.8998622894 0.50848197937 11.386636734 -4.6155490875 1.4728364944 
10.442419052 -5.3900346756 3.4015455246 13.27507019 -3.4943585396 4.3659000397 10.442419052 -4.1300468445 4.6487731934 
11.386636734 -5.0602288246 2.4371910095 13.27507019 -3.8996043205 3.4015455246 10.442419052 -5.3900346756 3.4015455246 
13.27507019 -3.8996043205 3.4015455246 13.27507019 -3.4943585396 4.3659000397 10.442419052 -5.3900346756 3.4015455246 
11.386636734 -5.0602288246 2.4371910095 11.386636734 -4.6155490875 1.4728364944 13.27507019 -3.8996043205 3.4015455246 
1.9444704056 -2.2465000153 -1.5036230087 2.3819789886 -4.1300468445 0.50848197937 1.1829986572 -2.2465000153 -0.45587253571 
1.1829986572 -2.2465000153 -0.45587253571 2.3819789886 -4.1300468445 0.50848197937 1.1645531654 -2.2465000153 0.50848197937 
2.3819789886 -4.1300468445 0.50848197937 1.9444704056 -2.5800714493 1.4728364944 1.1645531654 -2.2465000153 0.50848197937 
2.3819789886 -4.1300468445 0.50848197937 1.9444704056 -2.2465000153 -1.5036230087 3.8329033852 -4.7331342697 -0.45587253571 
3.8329033852 -2.2465000153 -1.9229574203 3.8329033852 -4.7331342697 -0.45587253571 1.9444704056 -2.2465000153 -1.5036230087 
2.3819789886 -4.1300468445 0.50848197937 3.4007668495 -2.2465000153 2.4371910095 1.9444704056 -2.5800714493 1.4728364944 
4.4646964073 -4.1300468445 2.4371910095 3.4007668495 -2.2465000153 2.4371910095 2.3819789886 -4.1300468445 0.50848197937 
3.4007668495 -2.2465000153 2.4371910095 4.4646964073 -4.1300468445 2.4371910095 5.7213368416 -1.3047266006 3.7697048187 
6.6655535698 -3.1882734299 -1.5411567688 3.8329033852 -4.7331342697 -0.45587253571 3.8329033852 -2.2465000153 -1.9229574203 
4.4646964073 -4.1300468445 2.4371910095 6.6655535698 -5.0718202591 3.1923761368 5.7213368416 -1.3047266006 3.7697048187 
9.4982032776 -3.1882734299 4.8190994263 5.7213368416 -1.3047266006 3.7697048187 6.6655535698 -5.0718202591 3.1923761368 
12.330852509 -2.2465000153 5.2779140472 9.4982032776 -3.1882734299 4.8190994263 10.442419052 -4.1300468445 4.6487731934 
13.27507019 -3.4943585396 4.3659000397 12.330852509 -2.2465000153 5.2779140472 10.442419052 -4.1300468445 4.6487731934 
11.386636734 -4.6155490875 1.4728364944 16.175237656 -1.3047266006 1.4728364944 13.27507019 -3.8996043205 3.4015455246 
8.5539855957 -4.1300468445 -0.61320304871 6.6655535698 -3.1882734299 -1.5411567688 8.5539855957 -3.1882734299 -1.2491617203 
13.27507019 -0.36295318604 -1.1235771179 8.5539855957 -4.1300468445 -0.61320304871 8.5539855957 -3.1882734299 -1.2491617203 
8.5539855957 -4.1300468445 -0.61320304871 13.27507019 -0.36295318604 -1.1235771179 14.219285965 -1.8998622894 0.50848197937 
13.27507019 -3.4943585396 4.3659000397 15.163503647 -1.3047266006 5.0754909515 12.330852509 -2.2465000153 5.2779140472 
14.219285965 -1.8998622894 0.50848197937 16.175237656 -1.3047266006 1.4728364944 11.386636734 -4.6155490875 1.4728364944 
16.175237656 -1.3047266006 1.4728364944 16.802248001 -1.3047266006 2.4371910095 13.27507019 -3.8996043205 3.4015455246 
13.27507019 -3.8996043205 3.4015455246 15.163503647 -2.4117517471 4.3659000397 13.27507019 -3.4943585396 4.3659000397 
15.163503647 -1.3047266006 5.0754909515 13.27507019 -3.4943585396 4.3659000397 15.163503647 -2.4117517471 4.3659000397 
16.938676834 -1.3047266006 3.4015455246 13.27507019 -3.8996043205 3.4015455246 16.802248001 -1.3047266006 2.4371910095 
15.163503647 -2.4117517471 4.3659000397 13.27507019 -3.8996043205 3.4015455246 16.938676834 -1.3047266006 3.4015455246 
1.9444704056 -1.3047266006 -1.7303543091 1.1829986572 -2.2465000153 -0.45587253571 0.42737007141 0.57882022858 -0.45587253571 
0.42737007141 0.57882022858 -0.45587253571 1.1829986572 -2.2465000153 -0.45587253571 1.1645531654 -2.2465000153 0.50848197937 
1.9444704056 -1.3047266006 -1.7303543091 1.9444704056 -2.2465000153 -1.5036230087 1.1829986572 -2.2465000153 -0.45587253571 
1.1645531654 -2.2465000153 0.50848197937 1.9444704056 -2.5800714493 1.4728364944 0.45070505142 0.57882022858 0.50848197937 
3.8329033852 -2.2465000153 -1.9229574203 1.9444704056 -2.2465000153 -1.5036230087 1.9444704056 -1.3047266006 -1.7303543091 
5.7213368416 1.5205936432 -2.9752988815 3.8329033852 -2.2465000153 -1.9229574203 1.9444704056 -1.3047266006 -1.7303543091 
6.6655535698 -3.1882734299 -1.5411567688 3.8329033852 -2.2465000153 -1.9229574203 7.609770298 0.57882022858 -2.8529911041 
8.5539855957 -3.1882734299 -1.2491617203 6.6655535698 -3.1882734299 -1.5411567688 7.609770298 0.57882022858 -2.8529911041 
9.4982032776 -3.1882734299 4.8190994263 6.6655535698 0.57882022858 4.0345497131 5.7213368416 -1.3047266006 3.7697048187 
11.386636734 -0.36295318604 5.3719463348 6.6655535698 0.57882022858 4.0345497131 9.4982032776 -3.1882734299 4.8190994263 
11.386636734 -0.36295318604 5.3719463348 9.4982032776 -3.1882734299 4.8190994263 12.330852509 -2.2465000153 5.2779140472 
12.330852509 -2.2465000153 5.2779140472 15.163503647 -1.3047266006 5.0754909515 13.27507019 1.5205936432 5.2790813446 
17.170440674 -0.36295318604 4.3659000397 15.163503647 -2.4117517471 4.3659000397 16.938676834 -1.3047266006 3.4015455246 
15.163503647 -2.4117517471 4.3659000397 17.170440674 -0.36295318604 4.3659000397 15.163503647 -1.3047266006 5.0754909515 
1.1645531654 -2.2465000153 0.50848197937 0.45070505142 0.57882022858 0.50848197937 0.42737007141 0.57882022858 -0.45587253571 
0.45070505142 0.57882022858 0.50848197937 1.9444704056 -2.5800714493 1.4728364944 1.9444704056 -0.36295318604 1.9679059982 
3.4007668495 -2.2465000153 2.4371910095 1.9444704056 -0.36295318604 1.9679059982 1.9444704056 -2.5800714493 1.4728364944 
3.4007668495 -2.2465000153 2.4371910095 5.7213368416 -1.3047266006 3.7697048187 1.9444704056 -0.36295318604 1.9679059982 
7.609770298 0.57882022858 -2.8529911041 3.8329033852 -2.2465000153 -1.9229574203 5.7213368416 1.5205936432 -2.9752988815 
7.609770298 0.57882022858 -2.8529911041 11.386636734 1.5205936432 -2.5965061188 8.5539855957 -3.1882734299 -1.2491617203 
8.5539855957 -3.1882734299 -1.2491617203 11.386636734 1.5205936432 -2.5965061188 13.27507019 -0.36295318604 -1.1235771179 
13.27507019 1.5205936432 5.2790813446 11.386636734 -0.36295318604 5.3719463348 12.330852509 -2.2465000153 5.2779140472 
14.219285965 -1.8998622894 0.50848197937 13.27507019 -0.36295318604 -1.1235771179 18.940368652 3.4036254883 -0.45587253571 
16.175237656 -1.3047266006 1.4728364944 14.219285965 -1.8998622894 0.50848197937 18.940368652 3.4036254883 -0.45587253571 
1.9444704056 0.57882022858 -1.8848714828 1.9444704056 -1.3047266006 -1.7303543091 0.42737007141 0.57882022858 -0.45587253571 
1.9444704056 -0.36295318604 1.9679059982 1.9444704056 1.5205936432 1.8614883423 0.45070505142 0.57882022858 0.50848197937 
5.7213368416 1.5205936432 -2.9752988815 1.9444704056 -1.3047266006 -1.7303543091 1.9444704056 0.57882022858 -1.8848714828 
5.7213368416 -1.3047266006 3.7697048187 1.9444704056 1.5205936432 1.8614883423 1.9444704056 -0.36295318604 1.9679059982 
5.7213368416 -1.3047266006 3.7697048187 6.6655535698 0.57882022858 4.0345497131 1.9444704056 1.5205936432 1.8614883423 
11.386636734 -0.36295318604 5.3719463348 12.330852509 2.4623670578 4.9453468323 6.6655535698 0.57882022858 4.0345497131 
12.330852509 2.4623670578 4.9453468323 11.386636734 -0.36295318604 5.3719463348 13.27507019 1.5205936432 5.2790813446 
[...]
CELL_DATA 708
FIELD FieldData 1
GroupIds 1 708 float
0 0 0 0 0 0 0 0 0 
0 0 0 0 0 0 0 0 0 
0 0 0 0 0 0 0 0 0 
0 0 0 0 0 0 0 0 0 
0 0 0 0 0 0 0 0 0 
0 0 0 0 0 0 0 0 0 
0 0 0 0 0 0 0 0 0 
0 0 0 0 0 0 0 0 0 
0 0 0 0 0 0 0 0 0 
0 0 0 0 0 0 0 0 0 
0 0 0 0 0 0 0 0 0 
0 0 0 0 0 0 0 0 0 
0 0 0 0 0 0 0 0 0 
0 0 0 0 0 0 0 0 0 
0 0 0 0 0 0 0 0 0 
0 0 0 0 0 0 0 0 0 
0 0 0 0 0 0 0 0 0 
0 0 0 0 0 0 0 0 0 
0 0 0 0 0 0 0 0 0 
0 0 0 0 0 0 0 0 0 
0 0 0 0 0 0 0 0 0 
0 0 0 0 0 0 0 0 0 
0 0 0 0 0 0 0 0 0 
0 0 0 0 0 0 0 0 0 
0 0 0 0 0 0 0 0 0 
0 0 0 0 0 0 0 0 0 
0 0 0 0 0 0 0 0 0 
0 0 0 0 0 0 0 0 0 
0 0 0 0 0 0 0 0 0 
0 0 0 0 0 0 0 0 0 
0 0 0 0 0 0 0 0 0 
0 0 0 0 0 0 0 0 0 
0 0 0 0 0 0 0 0 0 
0 0 0 0 0 0 0 0 0 
0 0 0 0 0 0 0 0 0 
0 0 0 0 0 0 0 0 0 
0 0 0 0 0 0 0 0 0 
0 0 0 0 0 0 0 0 0 
0 0 0 0 0 0 0 0 0 
0 0 0 0 0 0 0 0 0 
0 0 0 0 0 0 0 0 0 
0 0 0 0 0 0 0 0 0 
0 0 0 0 0 0 0 0 0 
0 0 0 0 0 0 0 0 0 
0 0 0 0 0 0 0 0 0 
0 0 0 0 0 0 0 0 0 
0 0 0 0 0 0 0 0 0 
0 0 0 0 0 0 0 0 0 
0 0 0 0 0 0 0 0 0 
0 0 0 0 0 0 0 0 0 
0 0 0 0 0 0 0 0 0 
0 0 0 0 0 0 0 0 0 
0 0 0 0 0 0 0 0 0 
0 0 0 0 0 0 0 0 0 
0 0 0 0 0 0 0 0 0 
0 0 0 0 0 0 0 0 0 
0 0 0 0 0 0 0 0 0 
0 0 0 0 0 0 0 0 0 
0 0 0 0 0 0 0 0 0 
0 0 0 0 0 0 0 0 0 
0 0 0 0 0 0 0 0 0 
0 0 0 0 0 0 0 0 0 
0 0 0 0 0 0 0 0 0 
0 0 0 0 0 0 0 0 0 
0 0 0 0 0 0 0 0 0 
0 0 0 0 0 0 0 0 0 
0 0 0 0 0 0 0 0 0 
0 0 0 0 0 0 0 0 0 
0 0 0 0 0 0 0 0 0 
0 0 0 0 0 0 0 0 0 
0 0 0 0 0 0 0 0 0 
0 0 0 0 0 0 0 0 0 
0 0 0 0 0 0 0 0 0 
0 0 0 0 0 0 0 0 0 
0 0 0 0 0 0 0 0 0 
0 0 0 0 0 0 0 0 0 
0 0 0 0 0 0 0 0 0 
0 0 0 0 0 0 0 0 0 
0 0 0 0 0 0 
POINT_DATA 2124
NORMALS Normals float
-0.0669963 -0.979817 -0.188334 -0.0669963 -0.979817 -0.188334 -0.0669963 -0.979817 -0.188334 
-0.209662 -0.923588 -0.320977 -0.209662 -0.923588 -0.320977 -0.209662 -0.923588 -0.320977 
-0.684597 -0.669182 0.289001 -0.684597 -0.669182 0.289001 -0.684597 -0.669182 0.289001 
-0.480837 -0.673257 0.561712 -0.480837 -0.673257 0.561712 -0.480837 -0.673257 0.561712 
-0.0615333 -0.899922 0.431688 -0.0615333 -0.899922 0.431688 -0.0615333 -0.899922 0.431688 
-0.677872 -0.735136 0.00801657 -0.677872 -0.735136 0.00801657 -0.677872 -0.735136 0.00801657 
-0.241374 -0.768488 0.592591 -0.241374 -0.768488 0.592591 -0.241374 -0.768488 0.592591 
0.223629 -0.86775 -0.443847 0.223629 -0.86775 -0.443847 0.223629 -0.86775 -0.443847 
0.295134 -0.903014 -0.312187 0.295134 -0.903014 -0.312187 0.295134 -0.903014 -0.312187 
0.22947 -0.973258 0.0106133 0.22947 -0.973258 0.0106133 0.22947 -0.973258 0.0106133 
0.223813 -0.949263 0.220923 0.223813 -0.949263 0.220923 0.223813 -0.949263 0.220923 
0.0577991 -0.960582 -0.271923 0.0577991 -0.960582 -0.271923 0.0577991 -0.960582 -0.271923 
0.36658 -0.844889 -0.389592 0.36658 -0.844889 -0.389592 0.36658 -0.844889 -0.389592 
-0.227957 -0.942041 0.246159 -0.227957 -0.942041 0.246159 -0.227957 -0.942041 0.246159 
0.046452 -0.629851 -0.775326 0.046452 -0.629851 -0.775326 0.046452 -0.629851 -0.775326 
0.0667984 -0.629123 -0.77443 0.0667984 -0.629123 -0.77443 0.0667984 -0.629123 -0.77443 
-0.199522 -0.45118 0.869843 -0.199522 -0.45118 0.869843 -0.199522 -0.45118 0.869843 
0.20342 -0.716368 -0.667411 0.20342 -0.716368 -0.667411 0.20342 -0.716368 -0.667411 
-0.265089 -0.422528 0.866717 -0.265089 -0.422528 0.866717 -0.265089 -0.422528 0.866717 
0.0422923 -0.70287 0.71006 0.0422923 -0.70287 0.71006 0.0422923 -0.70287 0.71006 
0.375738 -0.598705 -0.707371 0.375738 -0.598705 -0.707371 0.375738 -0.598705 -0.707371 
0.419492 -0.659182 -0.624104 0.419492 -0.659182 -0.624104 0.419492 -0.659182 -0.624104 
0.22308 -0.685771 0.692787 0.22308 -0.685771 0.692787 0.22308 -0.685771 0.692787 
0.460265 -0.874761 0.151489 0.460265 -0.874761 0.151489 0.460265 -0.874761 0.151489 
0.436436 -0.829473 0.348565 0.436436 -0.829473 0.348565 0.436436 -0.829473 0.348565 
0.611065 -0.718839 -0.331468 0.611065 -0.718839 -0.331468 0.611065 -0.718839 -0.331468 
-0.626769 -0.632192 -0.455516 -0.626769 -0.632192 -0.455516 -0.626769 -0.632192 -0.455516 
-0.839734 -0.54276 -0.0160618 -0.839734 -0.54276 -0.0160618 -0.839734 -0.54276 -0.0160618 
-0.753737 -0.487176 0.441067 -0.753737 -0.487176 0.441067 -0.753737 -0.487176 0.441067 
-0.589236 -0.649803 -0.480164 -0.589236 -0.649803 -0.480164 -0.589236 -0.649803 -0.480164 
-0.187845 -0.499096 -0.845942 -0.187845 -0.499096 -0.845942 -0.187845 -0.499096 -0.845942 
-0.362241 -0.563968 0.742106 -0.362241 -0.563968 0.742106 -0.362241 -0.563968 0.742106 
-0.634344 -0.358312 0.684997 -0.634344 -0.358312 0.684997 -0.634344 -0.358312 0.684997 
-0.411633 -0.232513 0.88119 -0.411633 -0.232513 0.88119 -0.411633 -0.232513 0.88119 
-0.0527811 -0.507433 -0.860073 -0.0527811 -0.507433 -0.860073 -0.0527811 -0.507433 -0.860073 
-0.404431 -0.236755 0.883393 -0.404431 -0.236755 0.883393 -0.404431 -0.236755 0.883393 
-0.36525 -0.229801 0.9021 -0.36525 -0.229801 0.9021 -0.36525 -0.229801 0.9021 
-0.0737696 -0.24863 0.965785 -0.0737696 -0.24863 0.965785 -0.0737696 -0.24863 0.965785 
0.193096 -0.479524 0.85602 0.193096 -0.479524 0.85602 0.193096 -0.479524 0.85602 
0.551529 -0.797702 -0.243901 0.551529 -0.797702 -0.243901 0.551529 -0.797702 -0.243901 
0.127103 -0.555092 -0.82202 0.127103 -0.555092 -0.82202 0.127103 -0.555092 -0.82202 
0.336179 -0.527059 -0.780507 0.336179 -0.527059 -0.780507 0.336179 -0.527059 -0.780507 
0.367763 -0.561341 -0.741381 0.367763 -0.561341 -0.741381 0.367763 -0.561341 -0.741381 
0.215795 -0.464455 0.858903 0.215795 -0.464455 0.858903 0.215795 -0.464455 0.858903 
0.477729 -0.690962 -0.542537 0.477729 -0.690962 -0.542537 0.477729 -0.690962 -0.542537 
0.500897 -0.801896 -0.325677 0.500897 -0.801896 -0.325677 0.500897 -0.801896 -0.325677 
0.467268 -0.815074 0.342514 0.467268 -0.815074 0.342514 0.467268 -0.815074 0.342514 
0.295549 -0.515537 0.804284 0.295549 -0.515537 0.804284 0.295549 -0.515537 0.804284 
0.576068 -0.813329 -0.0814973 0.576068 -0.813329 -0.0814973 0.576068 -0.813329 -0.0814973 
0.573372 -0.809522 0.126171 0.573372 -0.809522 0.126171 0.573372 -0.809522 0.126171 
-0.766127 -0.2049 -0.609152 -0.766127 -0.2049 -0.609152 -0.766127 -0.2049 -0.609152 
-0.965882 -0.258324 -0.0184747 -0.965882 -0.258324 -0.0184747 -0.965882 -0.258324 -0.0184747 
-0.800947 -0.140141 -0.582103 -0.800947 -0.140141 -0.582103 -0.800947 -0.140141 -0.582103 
-0.794506 -0.200741 0.573117 -0.794506 -0.200741 0.573117 -0.794506 -0.200741 0.573117 
-0.211024 -0.228791 -0.950328 -0.211024 -0.228791 -0.950328 -0.211024 -0.228791 -0.950328 
-0.18657 -0.176456 -0.966465 -0.18657 -0.176456 -0.966465 -0.18657 -0.176456 -0.966465 
0.0165446 -0.332516 -0.942953 0.0165446 -0.332516 -0.942953 0.0165446 -0.332516 -0.942953 
0.142725 -0.357214 -0.923054 0.142725 -0.357214 -0.923054 0.142725 -0.357214 -0.923054 
-0.268179 -0.00102138 0.963368 -0.268179 -0.00102138 0.963368 -0.268179 -0.00102138 0.963368 
-0.273545 -0.00537336 0.961844 -0.273545 -0.00537336 0.961844 -0.273545 -0.00537336 0.961844 
-0.12289 -0.110839 0.986211 -0.12289 -0.110839 0.986211 -0.12289 -0.110839 0.986211 
0.0778174 -0.0198137 0.996771 0.0778174 -0.0198137 0.996771 0.0778174 -0.0198137 0.996771 
0.635945 -0.622951 0.455527 0.635945 -0.622951 0.455527 0.635945 -0.622951 0.455527 
0.482524 -0.472665 0.7374 0.482524 -0.472665 0.7374 0.482524 -0.472665 0.7374 
-0.969266 -0.244896 0.0234538 -0.969266 -0.244896 0.0234538 -0.969266 -0.244896 0.0234538 
-0.737159 -0.147258 0.659479 -0.737159 -0.147258 0.659479 -0.737159 -0.147258 0.659479 
-0.512197 -0.187171 0.838225 -0.512197 -0.187171 0.838225 -0.512197 -0.187171 0.838225 
-0.453249 -0.130751 0.881742 -0.453249 -0.130751 0.881742 -0.453249 -0.130751 0.881742 
-0.057768 -0.241633 -0.968647 -0.057768 -0.241633 -0.968647 -0.057768 -0.241633 -0.968647 
0.151151 -0.354909 -0.922601 0.151151 -0.354909 -0.922601 0.151151 -0.354909 -0.922601 
0.269213 -0.41114 -0.870912 0.269213 -0.41114 -0.870912 0.269213 -0.41114 -0.870912 
0.0658272 -0.0168087 0.997689 0.0658272 -0.0168087 0.997689 0.0658272 -0.0168087 0.997689 
0.431729 -0.518524 -0.738067 0.431729 -0.518524 -0.738067 0.431729 -0.518524 -0.738067 
0.496942 -0.562521 -0.660772 0.496942 -0.562521 -0.660772 0.496942 -0.562521 -0.660772 
-0.684435 -0.0596095 -0.726633 -0.684435 -0.0596095 -0.726633 -0.684435 -0.0596095 -0.726633 
-0.684868 0.0411031 0.727507 -0.684868 0.0411031 0.727507 -0.684868 0.0411031 0.727507 
-0.258286 -0.0789863 -0.962834 -0.258286 -0.0789863 -0.962834 -0.258286 -0.0789863 -0.962834 
-0.419581 0.0512031 0.906273 -0.419581 0.0512031 0.906273 -0.419581 0.0512031 0.906273 
-0.404623 0.0746807 0.911429 -0.404623 0.0746807 0.911429 -0.404623 0.0746807 0.911429 
-0.225336 0.218662 0.949426 -0.225336 0.218662 0.949426 -0.225336 0.218662 0.949426 
-0.147499 0.195682 0.969512 -0.147499 0.195682 0.969512 -0.147499 0.195682 0.969512 
0.261367 -0.418233 -0.869924 0.261367 -0.418233 -0.869924 0.261367 -0.418233 -0.869924 
0.125797 0.0126012 0.991976 0.125797 0.0126012 0.991976 0.125797 0.0126012 0.991976 
0.749877 -0.447181 -0.48756 0.749877 -0.447181 -0.48756 0.749877 -0.447181 -0.48756 
0.787407 -0.606285 -0.111396 0.787407 -0.606285 -0.111396 0.787407 -0.606285 -0.111396 
0.734299 -0.565393 0.37568 0.734299 -0.565393 0.37568 0.734299 -0.565393 0.37568 
0.304258 -0.0801222 0.949214 0.304258 -0.0801222 0.949214 0.304258 -0.0801222 0.949214 
0.411235 -0.207596 0.887575 0.411235 -0.207596 0.887575 0.411235 -0.207596 0.887575 
0.657274 -0.331799 0.676683 0.657274 -0.331799 0.676683 0.657274 -0.331799 0.676683 
0.705984 -0.707102 -0.039925 0.705984 -0.707102 -0.039925 0.705984 -0.707102 -0.039925 
-0.946814 0.320966 0.0229105 -0.946814 0.320966 0.0229105 -0.946814 0.320966 0.0229105 
-0.943677 0.330747 -0.00893841 -0.943677 0.330747 -0.00893841 -0.943677 0.330747 -0.00893841 
-0.731572 0.248 0.635058 -0.731572 0.248 0.635058 -0.731572 0.248 0.635058 
-0.667187 0.230529 -0.708321 -0.667187 0.230529 -0.708321 -0.667187 0.230529 -0.708321 
-0.674344 0.236349 -0.699571 -0.674344 0.236349 -0.699571 -0.674344 0.236349 -0.699571 
-0.255652 0.329439 0.908907 -0.255652 0.329439 0.908907 -0.255652 0.329439 0.908907 
0.272592 -0.320194 -0.907287 0.272592 -0.320194 -0.907287 0.272592 -0.320194 -0.907287 
0.0916372 0.145976 0.985035 0.0916372 0.145976 0.985035 0.0916372 0.145976 0.985035 
0.366812 -0.403092 -0.83843 0.366812 -0.403092 -0.83843 0.366812 -0.403092 -0.83843 
0.514937 -0.566102 -0.643714 0.514937 -0.566102 -0.643714 0.514937 -0.566102 -0.643714 
0.707812 -0.666889 -0.232941 0.707812 -0.666889 -0.232941 0.707812 -0.666889 -0.232941 
0.712291 -0.671108 -0.205562 0.712291 -0.671108 -0.205562 0.712291 -0.671108 -0.205562 
0.834641 -0.367823 0.409977 0.834641 -0.367823 0.409977 0.834641 -0.367823 0.409977 
0.666053 -0.293527 0.685722 0.666053 -0.293527 0.685722 0.666053 -0.293527 0.685722 
-0.60217 0.345612 0.719683 -0.60217 0.345612 0.719683 -0.60217 0.345612 0.719683 
-0.573817 0.216104 -0.789958 -0.573817 0.216104 -0.789958 -0.573817 0.216104 -0.789958 
-0.257816 -0.0808418 -0.962806 -0.257816 -0.0808418 -0.962806 -0.257816 -0.0808418 -0.962806 
-0.357465 0.270572 0.893873 -0.357465 0.270572 0.893873 -0.357465 0.270572 0.893873 
-0.322677 0.217747 0.921122 -0.322677 0.217747 0.921122 -0.322677 0.217747 0.921122 
0.0228068 -0.0836486 -0.996234 0.0228068 -0.0836486 -0.996234 0.0228068 -0.0836486 -0.996234 
0.0790914 -0.0459857 -0.995806 0.0790914 -0.0459857 -0.995806 0.0790914 -0.0459857 -0.995806 
-0.240336 0.310352 0.919739 -0.240336 0.310352 0.919739 -0.240336 0.310352 0.919739 
-0.0251149 0.311446 0.949932 -0.0251149 0.311446 0.949932 -0.0251149 0.311446 0.949932 
0.381327 -0.494902 -0.780809 0.381327 -0.494902 -0.780809 0.381327 -0.494902 -0.780809 
0.414511 0.0636264 0.907817 0.414511 0.0636264 0.907817 0.414511 0.0636264 0.907817 
-0.785092 0.519425 -0.337384 -0.785092 0.519425 -0.337384 -0.785092 0.519425 -0.337384 
-0.603582 0.339577 0.721371 -0.603582 0.339577 0.721371 -0.603582 0.339577 0.721371 
-0.361272 0.397143 0.843659 -0.361272 0.397143 0.843659 -0.361272 0.397143 0.843659 
-0.353614 0.0601922 -0.933453 -0.353614 0.0601922 -0.933453 -0.353614 0.0601922 -0.933453 
0.022165 -0.21186 -0.977049 0.022165 -0.21186 -0.977049 0.022165 -0.21186 -0.977049 
0.158936 -0.209219 -0.964866 0.158936 -0.209219 -0.964866 0.158936 -0.209219 -0.964866 
-0.0902583 0.411382 0.906983 -0.0902583 0.411382 0.906983 -0.0902583 0.411382 0.906983 
0.338749 -0.253144 -0.906183 0.338749 -0.253144 -0.906183 0.338749 -0.253144 -0.906183 
-0.0362913 0.352942 0.934941 -0.0362913 0.352942 0.934941 -0.0362913 0.352942 0.934941 
0.182522 0.235425 0.9546 0.182522 0.235425 0.9546 0.182522 0.235425 0.9546 
0.353303 -0.522436 -0.77604 0.353303 -0.522436 -0.77604 0.353303 -0.522436 -0.77604 
0.422515 0.0358521 0.905647 0.422515 0.0358521 0.905647 0.422515 0.0358521 0.905647 
0.777812 -0.350984 0.521362 0.777812 -0.350984 0.521362 0.777812 -0.350984 0.521362 
0.826537 -0.376752 0.418204 0.826537 -0.376752 0.418204 0.826537 -0.376752 0.418204 
-0.833966 0.55176 -0.00789926 -0.833966 0.55176 -0.00789926 -0.833966 0.55176 -0.00789926 
-0.785746 0.595554 0.16709 -0.785746 0.595554 0.16709 -0.785746 0.595554 0.16709 
-0.632028 0.479044 0.609145 -0.632028 0.479044 0.609145 -0.632028 0.479044 0.609145 
-0.340699 0.500922 0.795614 -0.340699 0.500922 0.795614 -0.340699 0.500922 0.795614 
-0.189685 0.523125 0.830879 -0.189685 0.523125 0.830879 -0.189685 0.523125 0.830879 
0.0979294 -0.0719098 -0.992592 0.0979294 -0.0719098 -0.992592 0.0979294 -0.0719098 -0.992592 
0.262639 -0.153559 -0.952597 0.262639 -0.153559 -0.952597 0.262639 -0.153559 -0.952597 
-0.112742 0.473824 0.873373 -0.112742 0.473824 0.873373 -0.112742 0.473824 0.873373 
0.247106 -0.221209 -0.943401 0.247106 -0.221209 -0.943401 0.247106 -0.221209 -0.943401 
0.511933 -0.591147 -0.623274 0.511933 -0.591147 -0.623274 0.511933 -0.591147 -0.623274 
0.515452 -0.595211 -0.616468 0.515452 -0.595211 -0.616468 0.515452 -0.595211 -0.616468 
0.75821 -0.571733 -0.313431 0.75821 -0.571733 -0.313431 0.75821 -0.571733 -0.313431 
0.772228 -0.582303 -0.25414 0.772228 -0.582303 -0.25414 0.772228 -0.582303 -0.25414 
0.462236 0.0361061 0.886021 0.462236 0.0361061 0.886021 0.462236 0.0361061 0.886021 
0.885006 -0.439361 0.154034 0.885006 -0.439361 0.154034 0.885006 -0.439361 0.154034 
0.737534 -0.366149 0.567431 0.737534 -0.366149 0.567431 0.737534 -0.366149 0.567431 
-0.679845 0.639468 -0.359016 -0.679845 0.639468 -0.359016 -0.679845 0.639468 -0.359016 
-0.514346 0.483798 -0.708087 -0.514346 0.483798 -0.708087 -0.514346 0.483798 -0.708087 
-0.386108 0.570228 0.725093 -0.386108 0.570228 0.725093 -0.386108 0.570228 0.725093 
-0.164247 0.165057 -0.972512 -0.164247 0.165057 -0.972512 -0.164247 0.165057 -0.972512 
-0.212829 0.539755 0.814474 -0.212829 0.539755 0.814474 -0.212829 0.539755 0.814474 
-0.00519216 -0.0490384 -0.998783 -0.00519216 -0.0490384 -0.998783 -0.00519216 -0.0490384 -0.998783 
-0.208862 0.544877 0.812087 -0.208862 0.544877 0.812087 -0.208862 0.544877 0.812087 
0.117469 0.0743141 -0.990292 0.117469 0.0743141 -0.990292 0.117469 0.0743141 -0.990292 
0.333091 -0.49904 -0.800006 0.333091 -0.49904 -0.800006 0.333091 -0.49904 -0.800006 
-0.548712 0.804931 0.225833 -0.548712 0.804931 0.225833 -0.548712 0.804931 0.225833 
-0.387524 0.739637 0.550238 -0.387524 0.739637 0.550238 -0.387524 0.739637 0.550238 
-0.18407 0.28622 -0.940317 -0.18407 0.28622 -0.940317 -0.18407 0.28622 -0.940317 
-0.454033 0.502642 -0.735666 -0.454033 0.502642 -0.735666 -0.454033 0.502642 -0.735666 
-0.135016 0.794985 0.591413 -0.135016 0.794985 0.591413 -0.135016 0.794985 0.591413 
-0.0668979 0.829686 0.554207 -0.0668979 0.829686 0.554207 -0.0668979 0.829686 0.554207 
-0.0423002 0.549741 -0.834263 -0.0423002 0.549741 -0.834263 -0.0423002 0.549741 -0.834263 
-0.252447 0.839113 0.48183 -0.252447 0.839113 0.48183 -0.252447 0.839113 0.48183 
-0.183512 0.676173 0.713521 -0.183512 0.676173 0.713521 -0.183512 0.676173 0.713521 
0.0109109 0.525414 -0.850777 0.0109109 0.525414 -0.850777 0.0109109 0.525414 -0.850777 
0.115683 0.1885 -0.975236 0.115683 0.1885 -0.975236 0.115683 0.1885 -0.975236 
-0.0120788 0.0620988 -0.997997 -0.0120788 0.0620988 -0.997997 -0.0120788 0.0620988 -0.997997 
0.0979959 0.0618044 -0.993266 0.0979959 0.0618044 -0.993266 0.0979959 0.0618044 -0.993266 
0.111325 -0.392313 -0.91307 0.111325 -0.392313 -0.91307 0.111325 -0.392313 -0.91307 
0.160428 -0.406244 -0.899572 0.160428 -0.406244 -0.899572 0.160428 -0.406244 -0.899572 
0.129746 0.301028 0.944748 0.129746 0.301028 0.944748 0.129746 0.301028 0.944748 
0.546211 -0.566824 -0.616736 0.546211 -0.566824 -0.616736 0.546211 -0.566824 -0.616736 
0.76247 -0.505694 -0.403624 0.76247 -0.505694 -0.403624 0.76247 -0.505694 -0.403624 
0.787924 -0.522576 -0.325714 0.787924 -0.522576 -0.325714 0.787924 -0.522576 -0.325714 
0.927805 -0.336305 0.161483 0.927805 -0.336305 0.161483 0.927805 -0.336305 0.161483 
-0.556758 0.816735 0.151543 -0.556758 0.816735 0.151543 -0.556758 0.816735 0.151543 
-0.397664 0.916051 -0.0520896 -0.397664 0.916051 -0.0520896 -0.397664 0.916051 -0.0520896 
-0.356199 0.820533 -0.447043 -0.356199 0.820533 -0.447043 -0.356199 0.820533 -0.447043 
-0.0286785 0.877768 -0.478226 -0.0286785 0.877768 -0.478226 -0.0286785 0.877768 -0.478226 
-0.0772243 0.957758 0.277014 -0.0772243 0.957758 0.277014 -0.0772243 0.957758 0.277014 
-0.0708955 0.921372 -0.382161 -0.0708955 0.921372 -0.382161 -0.0708955 0.921372 -0.382161 
-0.0320496 0.98095 0.191598 -0.0320496 0.98095 0.191598 -0.0320496 0.98095 0.191598 
0.0127429 0.533028 -0.846001 0.0127429 0.533028 -0.846001 0.0127429 0.533028 -0.846001 
-0.296892 0.621396 0.725067 -0.296892 0.621396 0.725067 -0.296892 0.621396 0.725067 
0.0355592 -0.276399 -0.960385 0.0355592 -0.276399 -0.960385 0.0355592 -0.276399 -0.960385 
0.128285 0.333132 0.934113 0.128285 0.333132 0.934113 0.128285 0.333132 0.934113 
0.454703 0.183282 0.871581 0.454703 0.183282 0.871581 0.454703 0.183282 0.871581 
0.787855 -0.108962 0.606145 0.787855 -0.108962 0.606145 0.787855 -0.108962 0.606145 
0.931532 -0.311478 0.187697 0.931532 -0.311478 0.187697 0.931532 -0.311478 0.187697 
0.785276 -0.108522 0.609562 0.785276 -0.108522 0.609562 0.785276 -0.108522 0.609562 
-0.0979438 0.909263 -0.404534 -0.0979438 0.909263 -0.404534 -0.0979438 0.909263 -0.404534 
-0.244703 0.969407 -0.0192389 -0.244703 0.969407 -0.0192389 -0.244703 0.969407 -0.0192389 
-0.155055 0.921734 -0.355478 -0.155055 0.921734 -0.355478 -0.155055 0.921734 -0.355478 
-0.221945 0.879249 0.4215 -0.221945 0.879249 0.4215 -0.221945 0.879249 0.4215 
-0.281994 0.281335 -0.91724 -0.281994 0.281335 -0.91724 -0.281994 0.281335 -0.91724 
-0.0119622 0.151651 -0.988362 -0.0119622 0.151651 -0.988362 -0.0119622 0.151651 -0.988362 
-0.54192 0.757848 0.363302 -0.54192 0.757848 0.363302 -0.54192 0.757848 0.363302 
-0.120273 -0.156555 -0.980319 -0.120273 -0.156555 -0.980319 -0.120273 -0.156555 -0.980319 
-0.11117 0.495971 0.861193 -0.11117 0.495971 0.861193 -0.11117 0.495971 0.861193 
0.0970951 0.369452 0.924163 0.0970951 0.369452 0.924163 0.0970951 0.369452 0.924163 
0.405972 0.103886 0.907962 0.405972 0.103886 0.907962 0.405972 0.103886 0.907962 
0.442302 0.203755 0.873414 0.442302 0.203755 0.873414 0.442302 0.203755 0.873414 
0.47204 -0.363162 -0.803301 0.47204 -0.363162 -0.803301 0.47204 -0.363162 -0.803301 
0.805915 -0.305305 -0.507238 0.805915 -0.305305 -0.507238 0.805915 -0.305305 -0.507238 
0.911545 -0.345321 0.223246 0.911545 -0.345321 0.223246 0.911545 -0.345321 0.223246 
-0.401016 0.594977 -0.696555 -0.401016 0.594977 -0.696555 -0.401016 0.594977 -0.696555 
-0.564227 0.770318 -0.297083 -0.564227 0.770318 -0.297083 -0.564227 0.770318 -0.297083 
-0.739183 0.672991 0.0263113 -0.739183 0.672991 0.0263113 -0.739183 0.672991 0.0263113 
-0.543254 0.741684 0.393422 -0.543254 0.741684 0.393422 -0.543254 0.741684 0.393422 
-0.301714 0.0803364 -0.950008 -0.301714 0.0803364 -0.950008 -0.301714 0.0803364 -0.950008 
-0.421774 0.144621 -0.895093 -0.421774 0.144621 -0.895093 -0.421774 0.144621 -0.895093 
-0.296467 0.619352 0.726987 -0.296467 0.619352 0.726987 -0.296467 0.619352 0.726987 