# vtk DataFile Version 4.2
3D Slicer output. SPACE=LPS
ASCII
DATASET POLYDATA
POINTS 2112 double
6.8541269302 -6.5240855217 0.86623668671 5.8698606491 -4.6772732735 -1.4340143204 8.8226613998 -5.6973838806 -0.14781761169 
4.2740907669 -4.6772732735 1.8802900314 3.9013261795 -5.452237606 -0.14781761169 6.8541269302 -6.435251236 1.8802900314 
6.8541269302 -6.435251236 1.8802900314 3.9013261795 -5.452237606 -0.14781761169 6.8541269302 -6.5240855217 0.86623668671 
4.2740907669 -4.6772732735 1.8802900314 6.8541269302 -6.435251236 1.8802900314 7.838394165 -4.6772732735 3.7688417435 
6.8541269302 -6.5240855217 0.86623668671 8.8226613998 -6.5988259315 1.8802900314 6.8541269302 -6.435251236 1.8802900314 
8.8226613998 -5.6973838806 -0.14781761169 8.8226613998 -6.5988259315 1.8802900314 6.8541269302 -6.5240855217 0.86623668671 
6.8541269302 -6.435251236 1.8802900314 8.8226613998 -6.5988259315 1.8802900314 7.838394165 -4.6772732735 3.7688417435 
11.775462151 -5.5142130852 1.8802900314 10.791194916 -6.0189437866 2.8943452835 8.8226613998 -6.5988259315 1.8802900314 
8.8226613998 -6.5988259315 1.8802900314 10.791194916 -6.0189437866 2.8943452835 10.791194916 -5.3834991455 3.9084005356 
7.838394165 -4.6772732735 3.7688417435 8.8226613998 -6.5988259315 1.8802900314 10.791194916 -5.3834991455 3.9084005356 
8.8226613998 -6.5988259315 1.8802900314 8.8226613998 -5.6973838806 -0.14781761169 12.759728432 -3.6375169754 -0.14781761169 
12.759728432 -3.6375169754 -0.14781761169 11.775462151 -5.5142130852 1.8802900314 8.8226613998 -6.5988259315 1.8802900314 
1.9327926636 -3.160826683 -1.1618719101 3.9013261795 -4.6882510185 -1.1618719101 3.9013261795 -5.452237606 -0.14781761169 
3.9013261795 -5.452237606 -0.14781761169 4.2740907669 -4.6772732735 1.8802900314 1.9327926636 -3.7814183235 -0.14781761169 
3.9013261795 -5.452237606 -0.14781761169 3.9013261795 -4.6882510185 -1.1618719101 6.8541269302 -6.5240855217 0.86623668671 
5.8698606491 -4.6772732735 -1.4340143204 6.8541269302 -6.5240855217 0.86623668671 3.9013261795 -4.6882510185 -1.1618719101 
8.8226613998 -3.6889138222 -1.7398900986 8.8226613998 -5.6973838806 -0.14781761169 5.8698606491 -4.6772732735 -1.4340143204 
10.791194916 -5.3834991455 3.9084005356 9.806927681 -3.6889138222 4.5823755264 7.838394165 -4.6772732735 3.7688417435 
8.8226613998 -5.6973838806 -0.14781761169 8.8226613998 -3.6889138222 -1.7398900986 12.759728432 -3.6375169754 -0.14781761169 
1.9327926636 -3.7814183235 -0.14781761169 1.9327926636 -3.160826683 -1.1618719101 3.9013261795 -5.452237606 -0.14781761169 
1.9327926636 -3.7814183235 -0.14781761169 4.2740907669 -4.6772732735 1.8802900314 1.9327926636 -1.7121944427 1.5374250412 
12.759728432 -2.700553894 -0.99611473083 12.759728432 -3.6375169754 -0.14781761169 8.8226613998 -3.6889138222 -1.7398900986 
12.759728432 -3.6375169754 -0.14781761169 14.728262901 -3.9020590782 2.8943452835 11.775462151 -5.5142130852 1.8802900314 
14.728262901 -3.9020590782 2.8943452835 10.791194916 -6.0189437866 2.8943452835 11.775462151 -5.5142130852 1.8802900314 
17.681064606 -1.2328853607 0.86623668671 14.728262901 -3.9020590782 2.8943452835 12.759728432 -3.6375169754 -0.14781761169 
14.728262901 -3.9020590782 2.8943452835 17.035305023 -1.7121944427 3.9084005356 10.791194916 -5.3834991455 3.9084005356 
14.728262901 -3.9020590782 2.8943452835 10.791194916 -5.3834991455 3.9084005356 10.791194916 -6.0189437866 2.8943452835 
10.791194916 -5.3834991455 3.9084005356 17.035305023 -1.7121944427 3.9084005356 14.728262901 -1.7121944427 4.898100853 
3.9013261795 -4.6882510185 -1.1618719101 1.9327926636 -3.160826683 -1.1618719101 3.9013261795 -2.700553894 -2.2127504349 
7.838394165 -1.7121944427 -2.8831291199 3.9013261795 -4.6882510185 -1.1618719101 3.9013261795 -2.700553894 -2.2127504349 
5.8698606491 -4.6772732735 -1.4340143204 3.9013261795 -4.6882510185 -1.1618719101 7.838394165 -1.7121944427 -2.8831291199 
7.838394165 -4.6772732735 3.7688417435 6.8541269302 -2.700553894 3.8082933426 4.2740907669 -4.6772732735 1.8802900314 
8.8226613998 -3.6889138222 -1.7398900986 5.8698606491 -4.6772732735 -1.4340143204 7.838394165 -1.7121944427 -2.8831291199 
9.806927681 -3.6889138222 4.5823755264 6.8541269302 -2.700553894 3.8082933426 7.838394165 -4.6772732735 3.7688417435 
14.728262901 -1.7121944427 4.898100853 9.806927681 -3.6889138222 4.5823755264 10.791194916 -5.3834991455 3.9084005356 
17.681064606 -1.2328853607 0.86623668671 17.687156677 -1.7121944427 1.8802900314 14.728262901 -3.9020590782 2.8943452835 
17.769290924 -1.7121944427 2.8943452835 14.728262901 -3.9020590782 2.8943452835 17.687156677 -1.7121944427 1.8802900314 
17.035305023 -1.7121944427 3.9084005356 14.728262901 -3.9020590782 2.8943452835 17.769290924 -1.7121944427 2.8943452835 
1.9327926636 -3.7814183235 -0.14781761169 1.9327926636 -1.7121944427 1.5374250412 0.10222911835 0.26452445984 -0.14781761169 
3.9013261795 -2.700553894 -2.2127504349 1.9327926636 -0.72383499146 -1.9819087982 3.9013261795 1.2528839111 -2.9208574295 
3.9013261795 -2.700553894 -2.2127504349 1.9327926636 -3.160826683 -1.1618719101 1.9327926636 -0.72383499146 -1.9819087982 
1.9327926636 -1.7121944427 1.5374250412 4.2740907669 -4.6772732735 1.8802900314 6.8541269302 -2.700553894 3.8082933426 
9.806927681 -3.6889138222 4.5823755264 14.728262901 -1.7121944427 4.898100853 13.74399662 0.26452445984 4.9476480484 
12.759728432 -2.700553894 -0.99611473083 18.665328979 0.30703353882 -0.14781761169 12.759728432 -3.6375169754 -0.14781761169 
12.759728432 -3.6375169754 -0.14781761169 18.665328979 0.30703353882 -0.14781761169 17.681064606 -1.2328853607 0.86623668671 
0.10222911835 0.26452445984 -0.14781761169 1.9327926636 -3.160826683 -1.1618719101 1.9327926636 -3.7814183235 -0.14781761169 
1.9327926636 -3.160826683 -1.1618719101 0.10222911835 0.26452445984 -0.14781761169 1.9327926636 -0.72383499146 -1.9819087982 
5.8698606491 0.26452445984 -3.3416967392 3.9013261795 -2.700553894 -2.2127504349 3.9013261795 1.2528839111 -2.9208574295 
7.838394165 -1.7121944427 -2.8831291199 3.9013261795 -2.700553894 -2.2127504349 5.8698606491 0.26452445984 -3.3416967392 
9.806927681 -3.6889138222 4.5823755264 8.8226613998 -0.72383499146 4.3940877914 6.8541269302 -2.700553894 3.8082933426 
11.775462151 -0.72383499146 -2.5951414108 8.8226613998 -3.6889138222 -1.7398900986 7.838394165 -1.7121944427 -2.8831291199 
13.74399662 0.26452445984 4.9476480484 8.8226613998 -0.72383499146 4.3940877914 9.806927681 -3.6889138222 4.5823755264 
8.8226613998 -3.6889138222 -1.7398900986 11.775462151 -0.72383499146 -2.5951414108 12.759728432 -2.700553894 -0.99611473083 
12.759728432 -2.700553894 -0.99611473083 18.665328979 1.3435153961 -1.1618719101 18.665328979 0.30703353882 -0.14781761169 
0.10222911835 0.26452445984 -0.14781761169 1.9327926636 -1.7121944427 1.5374250412 1.9327926636 1.2528839111 1.7338514328 
6.8541269302 -2.700553894 3.8082933426 1.9327926636 1.2528839111 1.7338514328 1.9327926636 -1.7121944427 1.5374250412 
8.8226613998 -0.72383499146 4.3940877914 1.9327926636 1.2528839111 1.7338514328 6.8541269302 -2.700553894 3.8082933426 
13.74399662 0.26452445984 4.9476480484 10.791194916 1.2528839111 4.3692502975 8.8226613998 -0.72383499146 4.3940877914 
15.712529182 1.2528839111 -2.3354415894 12.759728432 -2.700553894 -0.99611473083 11.775462151 -0.72383499146 -2.5951414108 
18.665328979 1.3435153961 -1.1618719101 12.759728432 -2.700553894 -0.99611473083 15.712529182 1.2528839111 -2.3354415894 
14.728262901 -1.7121944427 4.898100853 15.712529182 1.2528839111 4.5992841721 13.74399662 0.26452445984 4.9476480484 
17.035305023 -1.7121944427 3.9084005356 18.124267578 0.26452445984 3.9084005356 14.728262901 -1.7121944427 4.898100853 
18.124267578 0.26452445984 3.9084005356 15.712529182 1.2528839111 4.5992841721 14.728262901 -1.7121944427 4.898100853 
18.124267578 0.26452445984 3.9084005356 17.035305023 -1.7121944427 3.9084005356 17.769290924 -1.7121944427 2.8943452835 
17.681064606 -1.2328853607 0.86623668671 20.419624329 1.2528839111 1.8802900314 17.687156677 -1.7121944427 1.8802900314 
20.419624329 1.2528839111 1.8802900314 17.769290924 -1.7121944427 2.8943452835 17.687156677 -1.7121944427 1.8802900314 
12.759728432 2.2412443161 -3.6259622574 7.838394165 -1.7121944427 -2.8831291199 8.8226613998 3.2296037674 -4.1977329254 
11.775462151 -0.72383499146 -2.5951414108 7.838394165 -1.7121944427 -2.8831291199 12.759728432 2.2412443161 -3.6259622574 
12.759728432 2.2412443161 -3.6259622574 15.712529182 1.2528839111 -2.3354415894 11.775462151 -0.72383499146 -2.5951414108 
15.712529182 1.2528839111 4.5992841721 18.124267578 0.26452445984 3.9084005356 20.042133331 2.2412443161 2.8943452835 
20.419624329 1.2528839111 1.8802900314 20.042133331 2.2412443161 2.8943452835 17.769290924 -1.7121944427 2.8943452835 
17.769290924 -1.7121944427 2.8943452835 20.042133331 2.2412443161 2.8943452835 18.124267578 0.26452445984 3.9084005356 
21.61812973 2.5496578217 -0.14781761169 17.681064606 -1.2328853607 0.86623668671 18.665328979 0.30703353882 -0.14781761169 
20.419624329 1.2528839111 1.8802900314 17.681064606 -1.2328853607 0.86623668671 21.61812973 2.5496578217 -0.14781761169 
1.7017111778 3.2296037674 -1.1618719101 1.9327926636 -0.72383499146 -1.9819087982 0.10222911835 0.26452445984 -0.14781761169 
0.10222911835 0.26452445984 -0.14781761169 1.9327926636 1.2528839111 1.7338514328 1.9327926636 3.5906019211 0.86623668671 
3.9013261795 4.2179632187 -2.6730623245 3.9013261795 1.2528839111 -2.9208574295 1.9327926636 -0.72383499146 -1.9819087982 
1.9327926636 -0.72383499146 -1.9819087982 1.7017111778 3.2296037674 -1.1618719101 3.9013261795 4.2179632187 -2.6730623245 
8.8226613998 -0.72383499146 4.3940877914 6.8541269302 2.2412443161 3.1957941055 1.9327926636 1.2528839111 1.7338514328 
7.838394165 -1.7121944427 -2.8831291199 5.8698606491 0.26452445984 -3.3416967392 8.8226613998 3.2296037674 -4.1977329254 
10.791194916 1.2528839111 4.3692502975 6.8541269302 2.2412443161 3.1957941055 8.8226613998 -0.72383499146 4.3940877914 
[...]
CELL_DATA 704
FIELD FieldData 1
GroupIds 1 704 float
0 0 0 0 0 0 0 0 0 
0 0 0 0 0 0 0 0 0 
0 0 0 0 0 0 0 0 0 
0 0 0 0 0 0 0 0 0 
0 0 0 0 0 0 0 0 0 
0 0 0 0 0 0 0 0 0 
0 0 0 0 0 0 0 0 0 
0 0 0 0 0 0 0 0 0 
0 0 0 0 0 0 0 0 0 
0 0 0 0 0 0 0 0 0 
0 0 0 0 0 0 0 0 0 
0 0 0 0 0 0 0 0 0 
0 0 0 0 0 0 0 0 0 
0 0 0 0 0 0 0 0 0 
0 0 0 0 0 0 0 0 0 
0 0 0 0 0 0 0 0 0 
0 0 0 0 0 0 0 0 0 
0 0 0 0 0 0 0 0 0 
0 0 0 0 0 0 0 0 0 
0 0 0 0 0 0 0 0 0 
0 0 0 0 0 0 0 0 0 
0 0 0 0 0 0 0 0 0 
0 0 0 0 0 0 0 0 0 
0 0 0 0 0 0 0 0 0 
0 0 0 0 0 0 0 0 0 
0 0 0 0 0 0 0 0 0 
0 0 0 0 0 0 0 0 0 
0 0 0 0 0 0 0 0 0 
0 0 0 0 0 0 0 0 0 
0 0 0 0 0 0 0 0 0 
0 0 0 0 0 0 0 0 0 
0 0 0 0 0 0 0 0 0 
0 0 0 0 0 0 0 0 0 
0 0 0 0 0 0 0 0 0 
0 0 0 0 0 0 0 0 0 
0 0 0 0 0 0 0 0 0 
0 0 0 0 0 0 0 0 0 
0 0 0 0 0 0 0 0 0 
0 0 0 0 0 0 0 0 0 
0 0 0 0 0 0 0 0 0 
0 0 0 0 0 0 0 0 0 
0 0 0 0 0 0 0 0 0 
0 0 0 0 0 0 0 0 0 
0 0 0 0 0 0 0 0 0 
0 0 0 0 0 0 0 0 0 
0 0 0 0 0 0 0 0 0 
0 0 0 0 0 0 0 0 0 
0 0 0 0 0 0 0 0 0 
0 0 0 0 0 0 0 0 0 
0 0 0 0 0 0 0 0 0 
0 0 0 0 0 0 0 0 0 
0 0 0 0 0 0 0 0 0 
0 0 0 0 0 0 0 0 0 
0 0 0 0 0 0 0 0 0 
0 0 0 0 0 0 0 0 0 
0 0 0 0 0 0 0 0 0 
0 0 0 0 0 0 0 0 0 
0 0 0 0 0 0 0 0 0 
0 0 0 0 0 0 0 0 0 
0 0 0 0 0 0 0 0 0 
0 0 0 0 0 0 0 0 0 
0 0 0 0 0 0 0 0 0 
0 0 0 0 0 0 0 0 0 
0 0 0 0 0 0 0 0 0 
0 0 0 0 0 0 0 0 0 
0 0 0 0 0 0 0 0 0 
0 0 0 0 0 0 0 0 0 
0 0 0 0 0 0 0 0 0 
0 0 0 0 0 0 0 0 0 
0 0 0 0 0 0 0 0 0 
0 0 0 0 0 0 0 0 0 
0 0 0 0 0 0 0 0 0 
0 0 0 0 0 0 0 0 0 
0 0 0 0 0 0 0 0 0 
0 0 0 0 0 0 0 0 0 
0 0 0 0 0 0 0 0 0 
0 0 0 0 0 0 0 0 0 
0 0 0 0 0 0 0 0 0 
0 0 
POINT_DATA 2112
NORMALS Normals float
0.00406686 -0.778918 -0.627113 0.00406686 -0.778918 -0.627113 0.00406686 -0.778918 -0.627113 
-0.519292 -0.762121 0.386661 -0.519292 -0.762121 0.386661 -0.519292 -0.762121 0.386661 
-0.364621 -0.927604 0.081261 -0.364621 -0.927604 0.081261 -0.364621 -0.927604 0.081261 
-0.385877 -0.566319 0.728273 -0.385877 -0.566319 0.728273 -0.385877 -0.566319 0.728273 
-0.0824955 -0.992789 0.0869715 -0.0824955 -0.992789 0.0869715 -0.0824955 -0.992789 0.0869715 
0.171933 -0.900194 -0.400113 0.171933 -0.900194 -0.400113 0.171933 -0.900194 -0.400113 
-0.0594154 -0.715033 0.696562 -0.0594154 -0.715033 0.696562 -0.0594154 -0.715033 0.696562 
0.341803 -0.93054 -0.1314 0.341803 -0.93054 -0.1314 0.341803 -0.93054 -0.1314 
-0.0239106 -0.847132 0.530844 -0.0239106 -0.847132 0.530844 -0.0239106 -0.847132 0.530844 
-0.2068 -0.737637 0.642748 -0.2068 -0.737637 0.642748 -0.2068 -0.737637 0.642748 
0.431337 -0.824423 -0.366435 0.431337 -0.824423 -0.366435 0.431337 -0.824423 -0.366435 
0.282297 -0.768538 -0.574159 0.282297 -0.768538 -0.574159 0.282297 -0.768538 -0.574159 
-0.52677 -0.678897 -0.51148 -0.52677 -0.678897 -0.51148 -0.52677 -0.678897 -0.51148 
-0.598677 -0.705352 0.37956 -0.598677 -0.705352 0.37956 -0.598677 -0.705352 0.37956 
-0.0829854 -0.795941 -0.59966 -0.0829854 -0.795941 -0.59966 -0.0829854 -0.795941 -0.59966 
-0.0789836 -0.793566 -0.603337 -0.0789836 -0.793566 -0.603337 -0.0789836 -0.793566 -0.603337 
0.125741 -0.61626 -0.77744 0.125741 -0.61626 -0.77744 0.125741 -0.61626 -0.77744 
-0.146665 -0.43795 0.886955 -0.146665 -0.43795 0.886955 -0.146665 -0.43795 0.886955 
0.309091 -0.590772 -0.745286 0.309091 -0.590772 -0.745286 0.309091 -0.590772 -0.745286 
-0.58641 -0.6909 -0.422824 -0.58641 -0.6909 -0.422824 -0.58641 -0.6909 -0.422824 
-0.674368 -0.466293 0.572537 -0.674368 -0.466293 0.572537 -0.674368 -0.466293 0.572537 
0.29482 -0.641329 -0.708363 0.29482 -0.641329 -0.708363 0.29482 -0.641329 -0.708363 
0.54162 -0.731559 -0.414089 0.54162 -0.731559 -0.414089 0.54162 -0.731559 -0.414089 
0.473459 -0.880559 0.0212665 0.473459 -0.880559 0.0212665 0.473459 -0.880559 0.0212665 
0.468248 -0.801165 -0.372664 0.468248 -0.801165 -0.372664 0.468248 -0.801165 -0.372664 
0.413571 -0.703397 0.578093 0.413571 -0.703397 0.578093 0.413571 -0.703397 0.578093 
0.414611 -0.77111 0.483206 0.414611 -0.77111 0.483206 0.414611 -0.77111 0.483206 
0.327447 -0.556918 0.763296 0.327447 -0.556918 0.763296 0.327447 -0.556918 0.763296 
-0.34093 -0.439388 -0.831086 -0.34093 -0.439388 -0.831086 -0.34093 -0.439388 -0.831086 
-0.0331789 -0.467133 -0.883564 -0.0331789 -0.467133 -0.883564 -0.0331789 -0.467133 -0.883564 
-0.125367 -0.367205 -0.921653 -0.125367 -0.367205 -0.921653 -0.125367 -0.367205 -0.921653 
-0.454131 -0.243231 0.85709 -0.454131 -0.243231 0.85709 -0.454131 -0.243231 0.85709 
0.0677221 -0.474018 -0.877907 0.0677221 -0.474018 -0.877907 0.0677221 -0.474018 -0.877907 
-0.302582 -0.169384 0.937952 -0.302582 -0.169384 0.937952 -0.302582 -0.169384 0.937952 
0.0729046 -0.331734 0.940552 0.0729046 -0.331734 0.940552 0.0729046 -0.331734 0.940552 
0.461973 -0.80076 -0.381268 0.461973 -0.80076 -0.381268 0.461973 -0.80076 -0.381268 
0.583708 -0.810586 -0.0472779 0.583708 -0.810586 -0.0472779 0.583708 -0.810586 -0.0472779 
0.538199 -0.747388 0.389555 0.538199 -0.747388 0.389555 0.538199 -0.747388 0.389555 
-0.812895 -0.367789 0.45159 -0.812895 -0.367789 0.45159 -0.812895 -0.367789 0.45159 
-0.280709 -0.169217 -0.944758 -0.280709 -0.169217 -0.944758 -0.280709 -0.169217 -0.944758 
-0.396106 -0.292837 -0.870256 -0.396106 -0.292837 -0.870256 -0.396106 -0.292837 -0.870256 
-0.44681 -0.253606 0.857931 -0.44681 -0.253606 0.857931 -0.44681 -0.253606 0.857931 
-0.0449758 -0.0474066 0.997863 -0.0449758 -0.0474066 0.997863 -0.0449758 -0.0474066 0.997863 
0.409067 -0.612437 -0.67645 0.409067 -0.612437 -0.67645 0.409067 -0.612437 -0.67645 
0.449964 -0.673665 -0.586267 0.449964 -0.673665 -0.586267 0.449964 -0.673665 -0.586267 
-0.883409 -0.399693 -0.244609 -0.883409 -0.399693 -0.244609 -0.883409 -0.399693 -0.244609 
-0.746469 -0.212218 -0.630672 -0.746469 -0.212218 -0.630672 -0.746469 -0.212218 -0.630672 
-0.286428 -0.168919 -0.943093 -0.286428 -0.168919 -0.943093 -0.286428 -0.168919 -0.943093 
-0.0850251 -0.304741 -0.948633 -0.0850251 -0.304741 -0.948633 -0.0850251 -0.304741 -0.948633 
-0.261488 -0.0255307 0.964869 -0.261488 -0.0255307 0.964869 -0.261488 -0.0255307 0.964869 
0.172235 -0.427501 -0.887456 0.172235 -0.427501 -0.887456 0.172235 -0.427501 -0.887456 
-0.116572 0.0243534 0.992884 -0.116572 0.0243534 0.992884 -0.116572 0.0243534 0.992884 
0.282138 -0.514528 -0.809728 0.282138 -0.514528 -0.809728 0.282138 -0.514528 -0.809728 
0.417027 -0.635618 -0.649676 0.417027 -0.635618 -0.649676 0.417027 -0.635618 -0.649676 
-0.703537 -0.0469757 0.709104 -0.703537 -0.0469757 0.709104 -0.703537 -0.0469757 0.709104 
-0.428098 -0.0597383 0.901756 -0.428098 -0.0597383 0.901756 -0.428098 -0.0597383 0.901756 
-0.343352 0.0642516 0.937006 -0.343352 0.0642516 0.937006 -0.343352 0.0642516 0.937006 
-0.140633 0.152342 0.978271 -0.140633 0.152342 0.978271 -0.140633 0.152342 0.978271 
0.30553 -0.50225 -0.808948 0.30553 -0.50225 -0.808948 0.30553 -0.50225 -0.808948 
0.330257 -0.514708 -0.791205 0.330257 -0.514708 -0.791205 0.330257 -0.514708 -0.791205 
0.149741 0.049809 0.98747 0.149741 0.049809 0.98747 0.149741 0.049809 0.98747 
0.385263 -0.212239 0.898068 0.385263 -0.212239 0.898068 0.385263 -0.212239 0.898068 
0.277207 0.00480815 0.960798 0.277207 0.00480815 0.960798 0.277207 0.00480815 0.960798 
0.739749 -0.407523 0.53544 0.739749 -0.407523 0.53544 0.739749 -0.407523 0.53544 
0.69941 -0.644542 -0.308855 0.69941 -0.644542 -0.308855 0.69941 -0.644542 -0.308855 
0.734062 -0.676475 -0.059456 0.734062 -0.676475 -0.059456 0.734062 -0.676475 -0.059456 
0.071742 -0.269734 -0.960259 0.071742 -0.269734 -0.960259 0.071742 -0.269734 -0.960259 
0.160075 -0.371129 -0.91468 0.160075 -0.371129 -0.91468 0.160075 -0.371129 -0.91468 
0.255106 -0.391974 -0.883899 0.255106 -0.391974 -0.883899 0.255106 -0.391974 -0.883899 
0.330746 0.156524 0.930649 0.330746 0.156524 0.930649 0.330746 0.156524 0.930649 
0.674162 -0.387578 0.62872 0.674162 -0.387578 0.62872 0.674162 -0.387578 0.62872 
0.72087 -0.41443 0.555512 0.72087 -0.41443 0.555512 0.72087 -0.41443 0.555512 
0.51352 -0.676138 -0.528332 0.51352 -0.676138 -0.528332 0.51352 -0.676138 -0.528332 
0.683222 -0.727617 -0.0614909 0.683222 -0.727617 -0.0614909 0.683222 -0.727617 -0.0614909 
-0.672339 0.112463 -0.73165 -0.672339 0.112463 -0.73165 -0.672339 0.112463 -0.73165 
-0.755043 0.22814 0.614705 -0.755043 0.22814 0.614705 -0.755043 0.22814 0.614705 
-0.487905 0.0726956 -0.869865 -0.487905 0.0726956 -0.869865 -0.487905 0.0726956 -0.869865 
-0.600184 0.128668 -0.789445 -0.600184 0.128668 -0.789445 -0.600184 0.128668 -0.789445 
-0.311922 0.170642 0.934658 -0.311922 0.170642 0.934658 -0.311922 0.170642 0.934658 
-0.0275497 -0.251851 -0.967374 -0.0275497 -0.251851 -0.967374 -0.0275497 -0.251851 -0.967374 
-0.22323 0.234195 0.946214 -0.22323 0.234195 0.946214 -0.22323 0.234195 0.946214 
-0.17832 0.37147 0.91116 -0.17832 0.37147 0.91116 -0.17832 0.37147 0.91116 
-0.109995 0.236356 0.965421 -0.109995 0.236356 0.965421 -0.109995 0.236356 0.965421 
0.0205714 0.295659 0.955072 0.0205714 0.295659 0.955072 0.0205714 0.295659 0.955072 
0.0174467 0.296621 0.954836 0.0174467 0.296621 0.954836 0.0174467 0.296621 0.954836 
0.31595 -0.580986 -0.750088 0.31595 -0.580986 -0.750088 0.31595 -0.580986 -0.750088 
0.369313 -0.0149473 0.929185 0.369313 -0.0149473 0.929185 0.369313 -0.0149473 0.929185 
0.469076 -0.61762 -0.631279 0.469076 -0.61762 -0.631279 0.469076 -0.61762 -0.631279 
0.705781 -0.707549 -0.0353275 0.705781 -0.707549 -0.0353275 0.705781 -0.707549 -0.0353275 
0.697755 -0.365558 0.61604 0.697755 -0.365558 0.61604 0.697755 -0.365558 0.61604 
-0.887646 0.401977 -0.224721 -0.887646 0.401977 -0.224721 -0.887646 0.401977 -0.224721 
-0.874582 0.396061 0.279717 -0.874582 0.396061 0.279717 -0.874582 0.396061 0.279717 
-0.393594 0.319862 0.861842 -0.393594 0.319862 0.861842 -0.393594 0.319862 0.861842 
-0.324294 0.276756 0.904566 -0.324294 0.276756 0.904566 -0.324294 0.276756 0.904566 
-0.229345 -0.0427447 -0.972406 -0.229345 -0.0427447 -0.972406 -0.229345 -0.0427447 -0.972406 
-0.367018 0.077469 -0.926983 -0.367018 0.077469 -0.926983 -0.367018 0.077469 -0.926983 
-0.235826 0.394913 0.887936 -0.235826 0.394913 0.887936 -0.235826 0.394913 0.887936 
-0.243021 -0.0378232 -0.969283 -0.243021 -0.0378232 -0.969283 -0.243021 -0.0378232 -0.969283 
-0.176027 0.40003 0.899439 -0.176027 0.40003 0.899439 -0.176027 0.40003 0.899439 
-0.16965 0.413877 0.894385 -0.16965 0.413877 0.894385 -0.16965 0.413877 0.894385 
-0.0748287 0.456684 0.886476 -0.0748287 0.456684 0.886476 -0.0748287 0.456684 0.886476 
0.315911 -0.250931 -0.915005 0.315911 -0.250931 -0.915005 0.315911 -0.250931 -0.915005 
0.130242 -0.375514 -0.91762 0.130242 -0.375514 -0.91762 0.130242 -0.375514 -0.91762 
0.12882 -0.375272 -0.91792 0.12882 -0.375272 -0.91792 0.12882 -0.375272 -0.91792 
0.470772 -0.667089 -0.577379 0.470772 -0.667089 -0.577379 0.470772 -0.667089 -0.577379 
0.0997468 -0.169838 -0.980411 0.0997468 -0.169838 -0.980411 0.0997468 -0.169838 -0.980411 
0.130221 0.342859 0.930317 0.130221 0.342859 0.930317 0.130221 0.342859 0.930317 
0.361964 -0.589962 -0.721752 0.361964 -0.589962 -0.721752 0.361964 -0.589962 -0.721752 
0.696999 -0.245092 0.673886 0.696999 -0.245092 0.673886 0.696999 -0.245092 0.673886 
0.441098 0.106759 0.891086 0.441098 0.106759 0.891086 0.441098 0.106759 0.891086 
0.801022 -0.564141 -0.200274 0.801022 -0.564141 -0.200274 0.801022 -0.564141 -0.200274 
-0.590459 0.675652 0.441421 -0.590459 0.675652 0.441421 -0.590459 0.675652 0.441421 
-0.414018 0.473753 0.777269 -0.414018 0.473753 0.777269 -0.414018 0.473753 0.777269 
-0.221168 0.507565 0.832744 -0.221168 0.507565 0.832744 -0.221168 0.507565 0.832744 
0.116832 -0.158497 -0.980423 0.116832 -0.158497 -0.980423 0.116832 -0.158497 -0.980423 
-0.0431223 0.523932 0.850668 -0.0431223 0.523932 0.850668 -0.0431223 0.523932 0.850668 
0.360461 -0.594259 -0.718974 0.360461 -0.594259 -0.718974 0.360461 -0.594259 -0.718974 
0.677323 -0.611145 -0.409556 0.677323 -0.611145 -0.409556 0.677323 -0.611145 -0.409556 
0.814469 -0.573611 0.0872382 0.814469 -0.573611 0.0872382 0.814469 -0.573611 0.0872382 
0.772505 -0.28371 0.568107 0.772505 -0.28371 0.568107 0.772505 -0.28371 0.568107 
-0.764718 0.616334 -0.187984 -0.764718 0.616334 -0.187984 -0.764718 0.616334 -0.187984 
-0.629799 0.318205 -0.70859 -0.629799 0.318205 -0.70859 -0.629799 0.318205 -0.70859 
-0.705983 0.568996 -0.4217 -0.705983 0.568996 -0.4217 -0.705983 0.568996 -0.4217 
-0.561086 0.783524 0.26697 -0.561086 0.783524 0.26697 -0.561086 0.783524 0.26697 
-0.451993 0.310759 -0.836141 -0.451993 0.310759 -0.836141 -0.451993 0.310759 -0.836141 
-0.151455 0.616334 0.772783 -0.151455 0.616334 0.772783 -0.151455 0.616334 0.772783 
-0.154409 0.615431 0.772918 -0.154409 0.615431 0.772918 -0.154409 0.615431 0.772918 
-0.0871087 0.0151171 -0.996084 -0.0871087 0.0151171 -0.996084 -0.0871087 0.0151171 -0.996084 
-0.148842 0.601761 0.784685 -0.148842 0.601761 0.784685 -0.148842 0.601761 0.784685 
-0.116769 0.593872 0.796041 -0.116769 0.593872 0.796041 -0.116769 0.593872 0.796041 
-0.0378428 0.521897 0.852169 -0.0378428 0.521897 0.852169 -0.0378428 0.521897 0.852169 
0.129617 0.354575 0.926 0.129617 0.354575 0.926 0.129617 0.354575 0.926 
0.1192 -0.458841 -0.880486 0.1192 -0.458841 -0.880486 0.1192 -0.458841 -0.880486 
0.172068 0.342946 0.923461 0.172068 0.342946 0.923461 0.172068 0.342946 0.923461 
0.445444 0.0984139 0.889884 0.445444 0.0984139 0.889884 0.445444 0.0984139 0.889884 
-0.486722 0.679679 0.548761 -0.486722 0.679679 0.548761 -0.486722 0.679679 0.548761 
-0.458581 0.264657 -0.848328 -0.458581 0.264657 -0.848328 -0.458581 0.264657 -0.848328 
-0.0288577 0.889086 0.45683 -0.0288577 0.889086 0.45683 -0.0288577 0.889086 0.45683 
-0.10146 0.561412 -0.821293 -0.10146 0.561412 -0.821293 -0.10146 0.561412 -0.821293 
0.0302947 0.349393 -0.936486 0.0302947 0.349393 -0.936486 0.0302947 0.349393 -0.936486 
-0.0302598 0.32265 -0.946034 -0.0302598 0.32265 -0.946034 -0.0302598 0.32265 -0.946034 
0.178023 0.022585 -0.983767 0.178023 0.022585 -0.983767 0.178023 0.022585 -0.983767 
-0.190372 0.0225319 -0.981454 -0.190372 0.0225319 -0.981454 -0.190372 0.0225319 -0.981454 
0.0457865 -0.122103 -0.991461 0.0457865 -0.122103 -0.991461 0.0457865 -0.122103 -0.991461 
0.298253 -0.486582 -0.821147 0.298253 -0.486582 -0.821147 0.298253 -0.486582 -0.821147 
-0.501047 0.759924 -0.414086 -0.501047 0.759924 -0.414086 -0.501047 0.759924 -0.414086 
-0.489284 0.742083 -0.458164 -0.489284 0.742083 -0.458164 -0.489284 0.742083 -0.458164 
-0.178299 0.943583 0.279037 -0.178299 0.943583 0.279037 -0.178299 0.943583 0.279037 
0.0155406 0.877993 -0.478422 0.0155406 0.877993 -0.478422 0.0155406 0.877993 -0.478422 
0.0175449 0.991228 0.130997 0.0175449 0.991228 0.130997 0.0175449 0.991228 0.130997 
-0.0857887 0.942347 0.323454 -0.0857887 0.942347 0.323454 -0.0857887 0.942347 0.323454 
-0.0263729 0.910137 -0.413468 -0.0263729 0.910137 -0.413468 -0.0263729 0.910137 -0.413468 
-0.149183 0.866045 -0.47719 -0.149183 0.866045 -0.47719 -0.149183 0.866045 -0.47719 
-0.168336 0.977233 0.129148 -0.168336 0.977233 0.129148 -0.168336 0.977233 0.129148 
-0.196539 0.763845 0.614747 -0.196539 0.763845 0.614747 -0.196539 0.763845 0.614747 
-0.0269033 0.540215 -0.841097 -0.0269033 0.540215 -0.841097 -0.0269033 0.540215 -0.841097 
-0.136254 0.85483 -0.500699 -0.136254 0.85483 -0.500699 -0.136254 0.85483 -0.500699 
-0.353028 0.505615 -0.787226 -0.353028 0.505615 -0.787226 -0.353028 0.505615 -0.787226 
-0.239475 0.766297 0.596189 -0.239475 0.766297 0.596189 -0.239475 0.766297 0.596189 
-0.244876 -0.170885 -0.954376 -0.244876 -0.170885 -0.954376 -0.244876 -0.170885 -0.954376 
0.00853805 -0.297191 -0.95478 0.00853805 -0.297191 -0.95478 0.00853805 -0.297191 -0.95478 
0.259435 -0.506696 -0.822163 0.259435 -0.506696 -0.822163 0.259435 -0.506696 -0.822163 
0.437485 -0.507935 -0.742031 0.437485 -0.507935 -0.742031 0.437485 -0.507935 -0.742031 
0.482318 -0.558087 -0.67521 0.482318 -0.558087 -0.67521 0.482318 -0.558087 -0.67521 
0.794162 -0.167961 0.584034 0.794162 -0.167961 0.584034 0.794162 -0.167961 0.584034 
0.486421 0.0960412 0.86843 0.486421 0.0960412 0.86843 0.486421 0.0960412 0.86843 
0.677299 -0.611391 -0.409227 0.677299 -0.611391 -0.409227 0.677299 -0.611391 -0.409227 
0.975677 -0.192701 0.104505 0.975677 -0.192701 0.104505 0.975677 -0.192701 0.104505 
0.83457 -0.346313 0.42844 0.83457 -0.346313 0.42844 0.83457 -0.346313 0.42844 
-0.139352 0.957884 0.251077 -0.139352 0.957884 0.251077 -0.139352 0.957884 0.251077 
-0.640595 0.662586 -0.388096 -0.640595 0.662586 -0.388096 -0.640595 0.662586 -0.388096 
-0.456258 0.860769 0.225622 -0.456258 0.860769 0.225622 -0.456258 0.860769 0.225622 
-0.491689 0.508568 -0.706824 -0.491689 0.508568 -0.706824 -0.491689 0.508568 -0.706824 
-0.390008 0.0705316 -0.918106 -0.390008 0.0705316 -0.918106 -0.390008 0.0705316 -0.918106 
-0.255131 0.666642 0.700354 -0.255131 0.666642 0.700354 -0.255131 0.666642 0.700354 
-0.084052 0.473254 0.876907 -0.084052 0.473254 0.876907 -0.084052 0.473254 0.876907 
-0.0840471 0.473244 0.876913 -0.0840471 0.473244 0.876913 -0.0840471 0.473244 0.876913 
0.61801 -0.56215 -0.549591 0.61801 -0.56215 -0.549591 0.61801 -0.56215 -0.549591 
0.674099 -0.613169 -0.411843 0.674099 -0.613169 -0.411843 0.674099 -0.613169 -0.411843 
0.83889 -0.302969 0.452188 0.83889 -0.302969 0.452188 0.83889 -0.302969 0.452188 
0.800986 -0.55215 -0.231414 0.800986 -0.55215 -0.231414 0.800986 -0.55215 -0.231414 
-0.562399 0.816554 0.130184 -0.562399 0.816554 0.130184 -0.562399 0.816554 0.130184 
-0.365493 0.60893 0.704002 -0.365493 0.60893 0.704002 -0.365493 0.60893 0.704002 
-0.331368 0.0599268 -0.941596 -0.331368 0.0599268 -0.941596 -0.331368 0.0599268 -0.941596 
0.186492 0.318599 0.929363 0.186492 0.318599 0.929363 0.186492 0.318599 0.929363 
0.19435 0.334663 0.922078 0.19435 0.334663 0.922078 0.19435 0.334663 0.922078 
0.157111 0.224516 0.961722 0.157111 0.224516 0.961722 0.157111 0.224516 0.961722 
0.607452 0.27101 0.746697 0.607452 0.27101 0.746697 0.607452 0.27101 0.746697 
0.37412 -0.551941 -0.745249 0.37412 -0.551941 -0.745249 0.37412 -0.551941 -0.745249 
0.532518 0.0978888 0.840739 0.532518 0.0978888 0.840739 0.532518 0.0978888 0.840739 
-0.719958 0.25807 -0.644252 -0.719958 0.25807 -0.644252 -0.719958 0.25807 -0.644252 
-0.781058 0.55735 0.281618 -0.781058 0.55735 0.281618 -0.781058 0.55735 0.281618 
-0.329786 -0.114374 -0.937102 -0.329786 -0.114374 -0.937102 -0.329786 -0.114374 -0.937102 
-0.0226484 -0.380175 -0.924637 -0.0226484 -0.380175 -0.924637 -0.0226484 -0.380175 -0.924637 
-0.178943 -0.237635 -0.95473 -0.178943 -0.237635 -0.95473 -0.178943 -0.237635 -0.95473 
0.100817 -0.378335 -0.920162 0.100817 -0.378335 -0.920162 0.100817 -0.378335 -0.920162 
0.40393 -0.435214 -0.80463 0.40393 -0.435214 -0.80463 0.40393 -0.435214 -0.80463 
0.715742 -0.499137 -0.488442 0.715742 -0.499137 -0.488442 0.715742 -0.499137 -0.488442 
0.798139 -0.556599 -0.230592 0.798139 -0.556599 -0.230592 0.798139 -0.556599 -0.230592 
0.889199 -0.321138 0.325876 0.889199 -0.321138 0.325876 0.889199 -0.321138 0.325876 
-0.758994 0.272062 -0.591532 -0.758994 0.272062 -0.591532 -0.758994 0.272062 -0.591532 
-0.802952 0.572972 0.16423 -0.802952 0.572972 0.16423 -0.802952 0.572972 0.16423 
-0.441895 -0.129484 -0.887673 -0.441895 -0.129484 -0.887673 -0.441895 -0.129484 -0.887673 
-0.084717 0.47227 0.877373 -0.084717 0.47227 0.877373 -0.084717 0.47227 0.877373 
0.859955 -0.359207 0.362557 0.859955 -0.359207 0.362557 0.859955 -0.359207 0.362557 
-0.361979 0.534213 0.763929 -0.361979 0.534213 0.763929 -0.361979 0.534213 0.763929 
-0.207048 0.560657 0.801745 -0.207048 0.560657 0.801745 -0.207048 0.560657 0.801745 
-0.0468978 0.473453 0.87957 -0.0468978 0.473453 0.87957 -0.0468978 0.473453 0.87957 
0.128272 -0.354202 -0.92633 0.128272 -0.354202 -0.92633 0.128272 -0.354202 -0.92633 
0.317324 -0.381105 -0.868369 0.317324 -0.381105 -0.868369 0.317324 -0.381105 -0.868369 
0.162835 0.236265 0.957948 0.162835 0.236265 0.957948 0.162835 0.236265 0.957948 
0.520144 -0.429258 -0.738369 0.520144 -0.429258 -0.738369 0.520144 -0.429258 -0.738369 
0.715464 -0.46393 -0.522379 0.715464 -0.46393 -0.522379 0.715464 -0.46393 -0.522379 