# vtk DataFile Version 4.2
3D Slicer output. SPACE=LPS
ASCII
DATASET POLYDATA
POINTS 2064 double
5.6618466377 -6.5722789764 1.2412166595 8.4487285614 -6.6427826881 1.2412166595 7.5197672844 -6.5521121025 2.1602230072 
2.8749656677 -5.2054963112 0.32220840454 5.6618466377 -6.5080852509 0.32220840454 5.6618466377 -6.5722789764 1.2412166595 
5.6618466377 -6.5722789764 1.2412166595 7.5197672844 -6.5521121025 2.1602230072 7.5197672844 -5.902577877 2.8214263916 
5.6618466377 -6.5080852509 0.32220840454 4.7328867912 -4.9889965057 -1.2614746094 9.3776874542 -5.9515490532 0.32220840454 
9.3776874542 -5.9515490532 0.32220840454 8.4487285614 -6.6427826881 1.2412166595 5.6618466377 -6.5080852509 0.32220840454 
5.6618466377 -6.5722789764 1.2412166595 5.6618466377 -6.5080852509 0.32220840454 8.4487285614 -6.6427826881 1.2412166595 
8.4487285614 -6.6427826881 1.2412166595 10.306648254 -6.1361422539 2.1602230072 7.5197672844 -6.5521121025 2.1602230072 
7.5197672844 -6.5521121025 2.1602230072 10.306648254 -6.1361422539 2.1602230072 10.306648254 -5.6522302628 3.0792312622 
7.5197672844 -5.902577877 2.8214263916 7.5197672844 -6.5521121025 2.1602230072 10.306648254 -5.6522302628 3.0792312622 
9.3776874542 -5.9515490532 0.32220840454 10.306648254 -6.1361422539 2.1602230072 8.4487285614 -6.6427826881 1.2412166595 
2.8749656677 -4.0754156113 1.6210327148 2.8749656677 -5.2054963112 0.32220840454 5.6618466377 -6.5722789764 1.2412166595 
5.6618466377 -6.5722789764 1.2412166595 5.6618466377 -4.9889965057 2.6700401306 2.8749656677 -4.0754156113 1.6210327148 
2.8749656677 -4.8055047989 -0.59679794312 4.7328867912 -4.9889965057 -1.2614746094 5.6618466377 -6.5080852509 0.32220840454 
2.8749656677 -5.2054963112 0.32220840454 2.8749656677 -4.8055047989 -0.59679794312 5.6618466377 -6.5080852509 0.32220840454 
5.6618466377 -6.5722789764 1.2412166595 7.5197672844 -5.902577877 2.8214263916 5.6618466377 -4.9889965057 2.6700401306 
7.5197672844 -4.9889965057 -1.3301591873 9.3776874542 -5.9515490532 0.32220840454 4.7328867912 -4.9889965057 -1.2614746094 
5.6618466377 -4.9889965057 2.6700401306 7.5197672844 -5.902577877 2.8214263916 7.5197672844 -3.1618347168 3.6422691345 
7.5197672844 -3.1618347168 3.6422691345 7.5197672844 -5.902577877 2.8214263916 9.3776874542 -4.0754156113 3.88763237 
7.5197672844 -5.902577877 2.8214263916 10.306648254 -5.6522302628 3.0792312622 9.3776874542 -4.0754156113 3.88763237 
10.306648254 -6.1361422539 2.1602230072 13.093530655 -4.8350815773 2.1602230072 10.306648254 -5.6522302628 3.0792312622 
10.306648254 -5.6522302628 3.0792312622 13.093530655 -4.8350815773 2.1602230072 14.022491455 -3.1618347168 3.4188098907 
9.3776874542 -4.0754156113 3.88763237 10.306648254 -5.6522302628 3.0792312622 14.022491455 -3.1618347168 3.4188098907 
10.306648254 -6.1361422539 2.1602230072 9.3776874542 -5.9515490532 0.32220840454 13.093530655 -4.8350815773 2.1602230072 
1.2130050659 -3.1618347168 -0.59679794312 2.8749656677 -5.2054963112 0.32220840454 1.1575942039 -3.1618347168 0.32220840454 
2.8749656677 -4.8055047989 -0.59679794312 2.8749656677 -5.2054963112 0.32220840454 1.2130050659 -3.1618347168 -0.59679794312 
2.8749656677 -5.2054963112 0.32220840454 2.8749656677 -4.0754156113 1.6210327148 1.1575942039 -3.1618347168 0.32220840454 
4.7328867912 -3.1618347168 -2.2210550308 4.7328867912 -4.9889965057 -1.2614746094 2.8749656677 -4.8055047989 -0.59679794312 
4.7328867912 -3.1618347168 -2.2210550308 6.5908074379 -3.1618347168 -2.4324207306 4.7328867912 -4.9889965057 -1.2614746094 
4.7328867912 -4.9889965057 -1.2614746094 6.5908074379 -3.1618347168 -2.4324207306 7.5197672844 -4.9889965057 -1.3301591873 
9.3776874542 -5.9515490532 0.32220840454 14.022491455 -3.1426048279 -0.59679794312 13.093530655 -4.8350815773 2.1602230072 
14.022491455 -3.1426048279 -0.59679794312 14.951450348 -3.7012972832 1.2412166595 13.093530655 -4.8350815773 2.1602230072 
14.951450348 -3.677631855 2.1602230072 14.022491455 -3.1618347168 3.4188098907 13.093530655 -4.8350815773 2.1602230072 
14.951450348 -3.677631855 2.1602230072 13.093530655 -4.8350815773 2.1602230072 14.951450348 -3.7012972832 1.2412166595 
1.1575942039 -3.1618347168 0.32220840454 2.8749656677 -4.0754156113 1.6210327148 1.4421439171 -2.2482538223 1.2412166595 
4.7328867912 -3.1618347168 -2.2210550308 2.8749656677 -4.8055047989 -0.59679794312 1.6857361794 -2.2482538223 -1.5158052444 
2.8749656677 -4.8055047989 -0.59679794312 1.2130050659 -3.1618347168 -0.59679794312 1.6857361794 -2.2482538223 -1.5158052444 
1.4421439171 -2.2482538223 1.2412166595 2.8749656677 -4.0754156113 1.6210327148 2.8749656677 -2.2482538223 2.1132946014 
2.8749656677 -4.0754156113 1.6210327148 5.6618466377 -4.9889965057 2.6700401306 2.8749656677 -2.2482538223 2.1132946014 
7.5197672844 -4.9889965057 -1.3301591873 6.5908074379 -3.1618347168 -2.4324207306 12.164569855 -1.3346719742 -2.628651619 
14.022491455 -3.1426048279 -0.59679794312 9.3776874542 -5.9515490532 0.32220840454 7.5197672844 -4.9889965057 -1.3301591873 
13.093530655 -2.2482538223 3.8515872955 9.3776874542 -4.0754156113 3.88763237 14.022491455 -3.1618347168 3.4188098907 
1.2130050659 -3.1618347168 -0.59679794312 1.1575942039 -3.1618347168 0.32220840454 0.29375743866 -0.42109107971 0.32220840454 
1.1575942039 -3.1618347168 0.32220840454 1.4421439171 -2.2482538223 1.2412166595 0.29375743866 -0.42109107971 0.32220840454 
5.6618466377 -4.9889965057 2.6700401306 6.5908074379 -0.42109107971 3.3079185486 2.8749656677 -2.2482538223 2.1132946014 
4.7328867912 -1.3346719742 -2.7722587585 6.5908074379 -1.3346719742 -3.1079797745 4.7328867912 -3.1618347168 -2.2210550308 
4.7328867912 -3.1618347168 -2.2210550308 6.5908074379 -1.3346719742 -3.1079797745 6.5908074379 -3.1618347168 -2.4324207306 
7.5197672844 -3.1618347168 3.6422691345 6.5908074379 -0.42109107971 3.3079185486 5.6618466377 -4.9889965057 2.6700401306 
6.5908074379 -1.3346719742 -3.1079797745 9.3776874542 -0.42109107971 -3.3899717331 6.5908074379 -3.1618347168 -2.4324207306 
6.5908074379 -3.1618347168 -2.4324207306 9.3776874542 -0.42109107971 -3.3899717331 12.164569855 -1.3346719742 -2.628651619 
9.3776874542 -4.0754156113 3.88763237 9.3776874542 -2.2482538223 3.9738578796 7.5197672844 -3.1618347168 3.6422691345 
12.164569855 -1.3346719742 -2.628651619 14.022491455 -3.1426048279 -0.59679794312 7.5197672844 -4.9889965057 -1.3301591873 
9.3776874542 -4.0754156113 3.88763237 13.093530655 -2.2482538223 3.8515872955 9.3776874542 -2.2482538223 3.9738578796 
12.164569855 -1.3346719742 -2.628651619 18.667293549 1.4060716629 -2.633975029 14.022491455 -3.1426048279 -0.59679794312 
14.022491455 -3.1618347168 3.4188098907 15.880411148 -1.3346719742 3.0742740631 13.093530655 -2.2482538223 3.8515872955 
17.738332748 -0.91010284424 -0.59679794312 14.951450348 -3.7012972832 1.2412166595 14.022491455 -3.1426048279 -0.59679794312 
17.712310791 -1.3346719742 1.2412166595 14.951450348 -3.7012972832 1.2412166595 17.738332748 -0.91010284424 -0.59679794312 
14.951450348 -3.677631855 2.1602230072 14.951450348 -3.7012972832 1.2412166595 17.712310791 -1.3346719742 1.2412166595 
0.52017593384 -0.42109107971 -0.59679794312 4.7328867912 -1.3346719742 -2.7722587585 1.6857361794 -2.2482538223 -1.5158052444 
1.6857361794 -2.2482538223 -1.5158052444 1.2130050659 -3.1618347168 -0.59679794312 0.52017593384 -0.42109107971 -0.59679794312 
4.7328867912 -3.1618347168 -2.2210550308 1.6857361794 -2.2482538223 -1.5158052444 4.7328867912 -1.3346719742 -2.7722587585 
9.3776874542 -2.2482538223 3.9738578796 6.5908074379 -0.42109107971 3.3079185486 7.5197672844 -3.1618347168 3.6422691345 
13.093530655 -2.2482538223 3.8515872955 13.093530655 -1.3346719742 3.8630523682 9.3776874542 -2.2482538223 3.9738578796 
15.880411148 -1.3346719742 3.0742740631 13.093530655 -1.3346719742 3.8630523682 13.093530655 -2.2482538223 3.8515872955 
15.880411148 -1.3346719742 3.0742740631 14.022491455 -3.1618347168 3.4188098907 14.951450348 -3.677631855 2.1602230072 
14.951450348 -3.677631855 2.1602230072 17.541172028 -0.42109107971 2.1602230072 15.880411148 -1.3346719742 3.0742740631 
17.541172028 -0.42109107971 2.1602230072 14.951450348 -3.677631855 2.1602230072 17.712310791 -1.3346719742 1.2412166595 
1.2130050659 -3.1618347168 -0.59679794312 0.29375743866 -0.42109107971 0.32220840454 0.52017593384 -0.42109107971 -0.59679794312 
1.9460053444 0.49248981476 -1.9353170395 4.7328867912 -1.3346719742 -2.7722587585 0.52017593384 -0.42109107971 -0.59679794312 
0.29375743866 -0.42109107971 0.32220840454 1.4421439171 -2.2482538223 1.2412166595 1.9460053444 0.49248981476 1.7161102295 
1.4421439171 -2.2482538223 1.2412166595 2.8749656677 -2.2482538223 2.1132946014 1.9460053444 0.49248981476 1.7161102295 
6.5908074379 -0.42109107971 3.3079185486 1.9460053444 0.49248981476 1.7161102295 2.8749656677 -2.2482538223 2.1132946014 
12.164569855 1.4060716629 3.2762889862 6.5908074379 -0.42109107971 3.3079185486 9.3776874542 -2.2482538223 3.9738578796 
13.093530655 -1.3346719742 3.8630523682 12.164569855 1.4060716629 3.2762889862 9.3776874542 -2.2482538223 3.9738578796 
15.880411148 -1.3346719742 3.0742740631 14.951450348 -0.42109107971 3.402349472 13.093530655 -1.3346719742 3.8630523682 
17.738332748 -0.91010284424 -0.59679794312 14.022491455 -3.1426048279 -0.59679794312 18.667293549 1.4060716629 -2.633975029 
19.428314209 0.49248981476 0.32220840454 17.541172028 -0.42109107971 2.1602230072 17.712310791 -1.3346719742 1.2412166595 
19.428314209 0.49248981476 0.32220840454 17.712310791 -1.3346719742 1.2412166595 17.738332748 -0.91010284424 -0.59679794312 
0.29375743866 -0.42109107971 0.32220840454 0.38985776901 0.49248981476 0.32220840454 0.52017593384 -0.42109107971 -0.59679794312 
0.94301319122 1.4060716629 -0.59679794312 1.9460053444 0.49248981476 -1.9353170395 0.52017593384 -0.42109107971 -0.59679794312 
0.38985776901 0.49248981476 0.32220840454 0.29375743866 -0.42109107971 0.32220840454 1.9460053444 0.49248981476 1.7161102295 
[...]
CELL_DATA 688
FIELD FieldData 1
GroupIds 1 688 float
0 0 0 0 0 0 0 0 0 
0 0 0 0 0 0 0 0 0 
0 0 0 0 0 0 0 0 0 
0 0 0 0 0 0 0 0 0 
0 0 0 0 0 0 0 0 0 
0 0 0 0 0 0 0 0 0 
0 0 0 0 0 0 0 0 0 
0 0 0 0 0 0 0 0 0 
0 0 0 0 0 0 0 0 0 
0 0 0 0 0 0 0 0 0 
0 0 0 0 0 0 0 0 0 
0 0 0 0 0 0 0 0 0 
0 0 0 0 0 0 0 0 0 
0 0 0 0 0 0 0 0 0 
0 0 0 0 0 0 0 0 0 
0 0 0 0 0 0 0 0 0 
0 0 0 0 0 0 0 0 0 
0 0 0 0 0 0 0 0 0 
0 0 0 0 0 0 0 0 0 
0 0 0 0 0 0 0 0 0 
0 0 0 0 0 0 0 0 0 
0 0 0 0 0 0 0 0 0 
0 0 0 0 0 0 0 0 0 
0 0 0 0 0 0 0 0 0 
0 0 0 0 0 0 0 0 0 
0 0 0 0 0 0 0 0 0 
0 0 0 0 0 0 0 0 0 
0 0 0 0 0 0 0 0 0 
0 0 0 0 0 0 0 0 0 
0 0 0 0 0 0 0 0 0 
0 0 0 0 0 0 0 0 0 
0 0 0 0 0 0 0 0 0 
0 0 0 0 0 0 0 0 0 
0 0 0 0 0 0 0 0 0 
0 0 0 0 0 0 0 0 0 
0 0 0 0 0 0 0 0 0 
0 0 0 0 0 0 0 0 0 
0 0 0 0 0 0 0 0 0 
0 0 0 0 0 0 0 0 0 
0 0 0 0 0 0 0 0 0 
0 0 0 0 0 0 0 0 0 
0 0 0 0 0 0 0 0 0 
0 0 0 0 0 0 0 0 0 
0 0 0 0 0 0 0 0 0 
0 0 0 0 0 0 0 0 0 
0 0 0 0 0 0 0 0 0 
0 0 0 0 0 0 0 0 0 
0 0 0 0 0 0 0 0 0 
0 0 0 0 0 0 0 0 0 
0 0 0 0 0 0 0 0 0 
0 0 0 0 0 0 0 0 0 
0 0 0 0 0 0 0 0 0 
0 0 0 0 0 0 0 0 0 
0 0 0 0 0 0 0 0 0 
0 0 0 0 0 0 0 0 0 
0 0 0 0 0 0 0 0 0 
0 0 0 0 0 0 0 0 0 
0 0 0 0 0 0 0 0 0 
0 0 0 0 0 0 0 0 0 
0 0 0 0 0 0 0 0 0 
0 0 0 0 0 0 0 0 0 
0 0 0 0 0 0 0 0 0 
0 0 0 0 0 0 0 0 0 
0 0 0 0 0 0 0 0 0 
0 0 0 0 0 0 0 0 0 
0 0 0 0 0 0 0 0 0 
0 0 0 0 0 0 0 0 0 
0 0 0 0 0 0 0 0 0 
0 0 0 0 0 0 0 0 0 
0 0 0 0 0 0 0 0 0 
0 0 0 0 0 0 0 0 0 
0 0 0 0 0 0 0 0 0 
0 0 0 0 0 0 0 0 0 
0 0 0 0 0 0 0 0 0 
0 0 0 0 0 0 0 0 0 
0 0 0 0 0 0 0 0 0 
0 0 0 0 
POINT_DATA 2064
NORMALS Normals float
-0.0252231 -0.997022 0.0728715 -0.0252231 -0.997022 0.0728715 -0.0252231 -0.997022 0.0728715 
-0.422586 -0.90412 -0.0631538 -0.422586 -0.90412 -0.0631538 -0.422586 -0.90412 -0.0631538 
-0.320964 -0.67563 0.663706 -0.320964 -0.67563 0.663706 -0.320964 -0.67563 0.663706 
0.102895 -0.687 -0.719335 0.102895 -0.687 -0.719335 0.102895 -0.687 -0.719335 
0.127342 -0.850228 -0.51078 0.127342 -0.850228 -0.51078 0.127342 -0.850228 -0.51078 
-0.0252289 -0.997252 -0.0696591 -0.0252289 -0.997252 -0.0696591 -0.0252289 -0.997252 -0.0696591 
0.143324 -0.960231 0.239614 0.143324 -0.960231 0.239614 0.143324 -0.960231 0.239614 
0.130933 -0.877212 0.461904 0.130933 -0.877212 0.461904 0.130933 -0.877212 0.461904 
-0.000744241 -0.713374 0.700784 -0.000744241 -0.713374 0.700784 -0.000744241 -0.713374 0.700784 
0.379078 -0.881934 -0.280165 0.379078 -0.881934 -0.280165 0.379078 -0.881934 -0.280165 
-0.505873 -0.650763 0.566216 -0.505873 -0.650763 0.566216 -0.505873 -0.650763 0.566216 
-0.446546 -0.59946 0.664263 -0.446546 -0.59946 0.664263 -0.446546 -0.59946 0.664263 
-0.281112 -0.769601 -0.573315 -0.281112 -0.769601 -0.573315 -0.281112 -0.769601 -0.573315 
-0.393916 -0.84278 -0.366814 -0.393916 -0.84278 -0.366814 -0.393916 -0.84278 -0.366814 
-0.363288 -0.624192 0.691669 -0.363288 -0.624192 0.691669 -0.363288 -0.624192 0.691669 
-0.0121523 -0.8699 -0.493078 -0.0121523 -0.8699 -0.493078 -0.0121523 -0.8699 -0.493078 
-0.214055 -0.280255 0.935755 -0.214055 -0.280255 0.935755 -0.214055 -0.280255 0.935755 
-0.258494 -0.277154 0.925401 -0.258494 -0.277154 0.925401 -0.258494 -0.277154 0.925401 
-0.0388114 -0.473886 0.879731 -0.0388114 -0.473886 0.879731 -0.0388114 -0.473886 0.879731 
0.381792 -0.817802 0.430621 0.381792 -0.817802 0.430621 0.381792 -0.817802 0.430621 
0.401518 -0.682385 0.610847 0.401518 -0.682385 0.610847 0.401518 -0.682385 0.610847 
0.165227 -0.371127 0.913764 0.165227 -0.371127 0.913764 0.165227 -0.371127 0.913764 
0.404644 -0.86675 -0.291562 0.404644 -0.86675 -0.291562 0.404644 -0.86675 -0.291562 
-0.764762 -0.642661 -0.0461108 -0.764762 -0.642661 -0.0461108 -0.764762 -0.642661 -0.0461108 
-0.671753 -0.679228 -0.29563 -0.671753 -0.679228 -0.29563 -0.671753 -0.679228 -0.29563 
-0.668038 -0.561379 0.488445 -0.668038 -0.561379 0.488445 -0.668038 -0.561379 0.488445 
-0.340925 -0.4371 -0.832294 -0.340925 -0.4371 -0.832294 -0.340925 -0.4371 -0.832294 
-0.100213 -0.462615 -0.880877 -0.100213 -0.462615 -0.880877 -0.100213 -0.462615 -0.880877 
-0.0209812 -0.524235 -0.851315 -0.0209812 -0.524235 -0.851315 -0.0209812 -0.524235 -0.851315 
0.428366 -0.827265 -0.363505 0.428366 -0.827265 -0.363505 0.428366 -0.827265 -0.363505 
0.313714 -0.852687 -0.417743 0.313714 -0.852687 -0.417743 0.313714 -0.852687 -0.417743 
0.425426 -0.682887 0.593868 0.425426 -0.682887 0.593868 0.425426 -0.682887 0.593868 
0.52864 -0.848565 0.0218515 0.52864 -0.848565 0.0218515 0.52864 -0.848565 0.0218515 
-0.678745 -0.404901 0.612667 -0.678745 -0.404901 0.612667 -0.678745 -0.404901 0.612667 
-0.327338 -0.450686 -0.830501 -0.327338 -0.450686 -0.830501 -0.327338 -0.450686 -0.830501 
-0.480491 -0.485838 -0.73013 -0.480491 -0.485838 -0.73013 -0.480491 -0.485838 -0.73013 
-0.50667 -0.224275 0.832458 -0.50667 -0.224275 0.832458 -0.50667 -0.224275 0.832458 
-0.409399 -0.237338 0.880945 -0.409399 -0.237338 0.880945 -0.409399 -0.237338 0.880945 
0.122066 -0.46645 -0.876085 0.122066 -0.46645 -0.876085 0.122066 -0.46645 -0.876085 
0.268322 -0.670114 -0.692062 0.268322 -0.670114 -0.692062 0.268322 -0.670114 -0.692062 
0.152725 -0.291966 0.944156 0.152725 -0.291966 0.944156 0.152725 -0.291966 0.944156 
-0.952175 -0.30011 -0.0574108 -0.952175 -0.30011 -0.0574108 -0.952175 -0.30011 -0.0574108 
-0.819946 -0.258433 0.510784 -0.819946 -0.258433 0.510784 -0.819946 -0.258433 0.510784 
-0.269603 -0.079189 0.95971 -0.269603 -0.079189 0.95971 -0.269603 -0.079189 0.95971 
-0.170465 -0.284589 -0.943372 -0.170465 -0.284589 -0.943372 -0.170465 -0.284589 -0.943372 
-0.106103 -0.34483 -0.932649 -0.106103 -0.34483 -0.932649 -0.106103 -0.34483 -0.932649 
-0.434217 -0.0373782 0.900032 -0.434217 -0.0373782 0.900032 -0.434217 -0.0373782 0.900032 
0.0187723 -0.346726 -0.937779 0.0187723 -0.346726 -0.937779 0.0187723 -0.346726 -0.937779 
0.107052 -0.423187 -0.899696 0.107052 -0.423187 -0.899696 0.107052 -0.423187 -0.899696 
-0.153263 -0.0465816 0.987087 -0.153263 -0.0465816 0.987087 -0.153263 -0.0465816 0.987087 
0.25488 -0.594851 -0.762357 0.25488 -0.594851 -0.762357 0.25488 -0.594851 -0.762357 
0.0328509 -0.0471131 0.998349 0.0328509 -0.0471131 0.998349 0.0328509 -0.0471131 0.998349 
0.251237 -0.597567 -0.761442 0.251237 -0.597567 -0.761442 0.251237 -0.597567 -0.761442 
0.306844 -0.134339 0.942231 0.306844 -0.134339 0.942231 0.306844 -0.134339 0.942231 
0.456762 -0.760248 -0.461943 0.456762 -0.760248 -0.461943 0.456762 -0.760248 -0.461943 
0.642016 -0.748964 -0.163916 0.642016 -0.748964 -0.163916 0.642016 -0.748964 -0.163916 
0.650695 -0.759088 0.0195474 0.650695 -0.759088 0.0195474 0.650695 -0.759088 0.0195474 
-0.420464 0.179148 -0.889447 -0.420464 0.179148 -0.889447 -0.420464 0.179148 -0.889447 
-0.778456 -0.196785 -0.596055 -0.778456 -0.196785 -0.596055 -0.778456 -0.196785 -0.596055 
-0.294506 -0.276007 -0.914924 -0.294506 -0.276007 -0.914924 -0.294506 -0.276007 -0.914924 
-0.199987 0.0515779 0.97844 -0.199987 0.0515779 0.97844 -0.199987 0.0515779 0.97844 
0.0328848 -0.0125418 0.99938 0.0328848 -0.0125418 0.99938 0.0328848 -0.0125418 0.99938 
0.272315 -0.0120744 0.962132 0.272315 -0.0120744 0.962132 0.272315 -0.0120744 0.962132 
0.596246 -0.48576 0.639162 0.596246 -0.48576 0.639162 0.596246 -0.48576 0.639162 
0.61118 -0.486033 0.624685 0.61118 -0.486033 0.624685 0.61118 -0.486033 0.624685 
0.621794 -0.494473 0.607346 0.621794 -0.494473 0.607346 0.621794 -0.494473 0.607346 
-0.942976 -0.238374 -0.232324 -0.942976 -0.238374 -0.232324 -0.942976 -0.238374 -0.232324 
-0.487994 -0.385639 -0.783036 -0.487994 -0.385639 -0.783036 -0.487994 -0.385639 -0.783036 
-0.639707 -0.0155481 0.768461 -0.639707 -0.0155481 0.768461 -0.639707 -0.0155481 0.768461 
-0.519201 -0.0523583 0.853047 -0.519201 -0.0523583 0.853047 -0.519201 -0.0523583 0.853047 
-0.318917 0.029191 0.947333 -0.318917 0.029191 0.947333 -0.318917 0.029191 0.947333 
-0.0734262 0.24074 0.967808 -0.0734262 0.24074 0.967808 -0.0734262 0.24074 0.967808 
-0.0206199 0.202613 0.979042 -0.0206199 0.202613 0.979042 -0.0206199 0.202613 0.979042 
0.271696 -0.0684555 0.959945 0.271696 -0.0684555 0.959945 0.271696 -0.0684555 0.959945 
0.414034 -0.68913 -0.594707 0.414034 -0.68913 -0.594707 0.414034 -0.68913 -0.594707 
0.730283 -0.411636 0.5452 0.730283 -0.411636 0.5452 0.730283 -0.411636 0.5452 
0.679667 -0.716753 -0.155943 0.679667 -0.716753 -0.155943 0.679667 -0.716753 -0.155943 
-0.96594 0.101608 -0.237982 -0.96594 0.101608 -0.237982 -0.96594 0.101608 -0.237982 
-0.729964 0.168926 -0.662281 -0.729964 0.168926 -0.662281 -0.729964 0.168926 -0.662281 
-0.665572 0.0700121 0.743043 -0.665572 0.0700121 0.743043 -0.665572 0.0700121 0.743043 
-0.353712 -0.114265 -0.928348 -0.353712 -0.114265 -0.928348 -0.353712 -0.114265 -0.928348 
-0.230196 -0.156616 -0.960459 -0.230196 -0.156616 -0.960459 -0.230196 -0.156616 -0.960459 
-0.176527 -0.120244 -0.976923 -0.176527 -0.120244 -0.976923 -0.176527 -0.120244 -0.976923 
0.188217 -0.448265 -0.873861 0.188217 -0.448265 -0.873861 0.188217 -0.448265 -0.873861 
0.114078 0.244799 0.962839 0.114078 0.244799 0.962839 0.114078 0.244799 0.962839 
0.120566 0.240499 0.963133 0.120566 0.240499 0.963133 0.120566 0.240499 0.963133 
0.260084 0.233929 0.936821 0.260084 0.233929 0.936821 0.260084 0.233929 0.936821 
0.400089 0.0789321 0.913071 0.400089 0.0789321 0.913071 0.400089 0.0789321 0.913071 
0.459064 0.0527782 0.886834 0.459064 0.0527782 0.886834 0.459064 0.0527782 0.886834 
0.452491 -0.684363 -0.571751 0.452491 -0.684363 -0.571751 0.452491 -0.684363 -0.571751 
0.664733 -0.741566 -0.0906109 0.664733 -0.741566 -0.0906109 0.664733 -0.741566 -0.0906109 
-0.915995 0.211977 -0.340617 -0.915995 0.211977 -0.340617 -0.915995 0.211977 -0.340617 
-0.652513 0.208726 0.728464 -0.652513 0.208726 0.728464 -0.652513 0.208726 0.728464 
-0.276246 0.223989 0.934622 -0.276246 0.223989 0.934622 -0.276246 0.223989 0.934622 
-0.0100356 -0.266844 -0.963687 -0.0100356 -0.266844 -0.963687 -0.0100356 -0.266844 -0.963687 
-0.0909749 -0.188608 -0.977829 -0.0909749 -0.188608 -0.977829 -0.0909749 -0.188608 -0.977829 
-0.0500888 0.232765 0.971242 -0.0500888 0.232765 0.971242 -0.0500888 0.232765 0.971242 
-0.0860238 0.278972 0.956438 -0.0860238 0.278972 0.956438 -0.0860238 0.278972 0.956438 
0.116505 -0.401588 -0.90838 0.116505 -0.401588 -0.90838 0.116505 -0.401588 -0.90838 
0.127817 -0.51718 -0.846279 0.127817 -0.51718 -0.846279 0.127817 -0.51718 -0.846279 
0.445428 0.0462399 0.894123 0.445428 0.0462399 0.894123 0.445428 0.0462399 0.894123 
0.425083 -0.748201 -0.509412 0.425083 -0.748201 -0.509412 0.425083 -0.748201 -0.509412 
0.736108 -0.292343 0.610475 0.736108 -0.292343 0.610475 0.736108 -0.292343 0.610475 
-0.727452 0.173861 -0.663767 -0.727452 0.173861 -0.663767 -0.727452 0.173861 -0.663767 
-0.403072 0.0554039 -0.91349 -0.403072 0.0554039 -0.91349 -0.403072 0.0554039 -0.91349 
-0.281178 0.264332 0.922533 -0.281178 0.264332 0.922533 -0.281178 0.264332 0.922533 
-0.0875545 0.383599 0.91934 -0.0875545 0.383599 0.91934 -0.0875545 0.383599 0.91934 
0.0442626 -0.283629 -0.957912 0.0442626 -0.283629 -0.957912 0.0442626 -0.283629 -0.957912 
0.81607 -0.566439 0.114788 0.81607 -0.566439 0.114788 0.81607 -0.566439 0.114788 
0.694067 -0.303978 0.652586 0.694067 -0.303978 0.652586 0.694067 -0.303978 0.652586 
0.711914 -0.580494 -0.395229 0.711914 -0.580494 -0.395229 0.711914 -0.580494 -0.395229 
0.750237 -0.611743 0.25083 0.750237 -0.611743 0.25083 0.750237 -0.611743 0.25083 
-0.878613 0.474049 -0.057592 -0.878613 0.474049 -0.057592 -0.878613 0.474049 -0.057592 
-0.786045 0.601468 0.142723 -0.786045 0.601468 0.142723 -0.786045 0.601468 0.142723 
-0.774353 0.417796 -0.47521 -0.774353 0.417796 -0.47521 -0.774353 0.417796 -0.47521 
-0.518978 0.205795 -0.829645 -0.518978 0.205795 -0.829645 -0.518978 0.205795 -0.829645 
-0.263722 0.326061 0.907819 -0.263722 0.326061 0.907819 -0.263722 0.326061 0.907819 
-0.359811 0.0564849 -0.931314 -0.359811 0.0564849 -0.931314 -0.359811 0.0564849 -0.931314 
-0.185732 0.378378 0.906826 -0.185732 0.378378 0.906826 -0.185732 0.378378 0.906826 
0.104727 0.455771 0.883915 0.104727 0.455771 0.883915 0.104727 0.455771 0.883915 
0.0389254 0.49194 0.869758 0.0389254 0.49194 0.869758 0.0389254 0.49194 0.869758 
0.66685 -0.103792 0.737928 0.66685 -0.103792 0.737928 0.66685 -0.103792 0.737928 
-0.713565 0.546008 0.438977 -0.713565 0.546008 0.438977 -0.713565 0.546008 0.438977 
-0.603663 0.537738 -0.588583 -0.603663 0.537738 -0.588583 -0.603663 0.537738 -0.588583 
-0.717736 0.639353 0.275833 -0.717736 0.639353 0.275833 -0.717736 0.639353 0.275833 
-0.525223 0.251651 -0.812904 -0.525223 0.251651 -0.812904 -0.525223 0.251651 -0.812904 
-0.384457 0.52253 0.761022 -0.384457 0.52253 0.761022 -0.384457 0.52253 0.761022 
-0.0123957 0.595748 0.803076 -0.0123957 0.595748 0.803076 -0.0123957 0.595748 0.803076 
-0.0555068 0.62445 0.77909 -0.0555068 0.62445 0.77909 -0.0555068 0.62445 0.77909 
-0.00848239 -0.366554 -0.930358 -0.00848239 -0.366554 -0.930358 -0.00848239 -0.366554 -0.930358 
0.255398 0.297463 0.919939 0.255398 0.297463 0.919939 0.255398 0.297463 0.919939 
0.406586 0.170218 0.897616 0.406586 0.170218 0.897616 0.406586 0.170218 0.897616 
0.433698 0.167879 0.885281 0.433698 0.167879 0.885281 0.433698 0.167879 0.885281 
0.374109 -0.603004 -0.704577 0.374109 -0.603004 -0.704577 0.374109 -0.603004 -0.704577 
0.193381 -0.521627 -0.830969 0.193381 -0.521627 -0.830969 0.193381 -0.521627 -0.830969 
0.875576 -0.384284 0.292735 0.875576 -0.384284 0.292735 0.875576 -0.384284 0.292735 
-0.691497 0.523155 -0.498138 -0.691497 0.523155 -0.498138 -0.691497 0.523155 -0.498138 
-0.734087 0.555376 -0.390736 -0.734087 0.555376 -0.390736 -0.734087 0.555376 -0.390736 
-0.262325 0.627566 0.733039 -0.262325 0.627566 0.733039 -0.262325 0.627566 0.733039 
-0.358995 0.0877698 -0.929203 -0.358995 0.0877698 -0.929203 -0.358995 0.0877698 -0.929203 
-0.449864 0.26398 -0.853192 -0.449864 0.26398 -0.853192 -0.449864 0.26398 -0.853192 
-0.0953153 0.515955 0.851296 -0.0953153 0.515955 0.851296 -0.0953153 0.515955 0.851296 
0.0011522 0.0940384 -0.995568 0.0011522 0.0940384 -0.995568 0.0011522 0.0940384 -0.995568 
0.191342 0.608099 0.770457 0.191342 0.608099 0.770457 0.191342 0.608099 0.770457 
-0.0788241 0.713786 0.695914 -0.0788241 0.713786 0.695914 -0.0788241 0.713786 0.695914 
-0.0288579 0.0637081 -0.997551 -0.0288579 0.0637081 -0.997551 -0.0288579 0.0637081 -0.997551 
-0.200308 0.192914 -0.960552 -0.200308 0.192914 -0.960552 -0.200308 0.192914 -0.960552 
0.0141954 -0.100712 -0.994814 0.0141954 -0.100712 -0.994814 0.0141954 -0.100712 -0.994814 
-0.152581 -0.26534 -0.952005 -0.152581 -0.26534 -0.952005 -0.152581 -0.26534 -0.952005 
0.0726238 0.448239 0.890959 0.0726238 0.448239 0.890959 0.0726238 0.448239 0.890959 
0.234375 0.322306 0.917163 0.234375 0.322306 0.917163 0.234375 0.322306 0.917163 
0.497758 -0.595338 -0.630721 0.497758 -0.595338 -0.630721 0.497758 -0.595338 -0.630721 
0.700687 -0.634097 -0.327045 0.700687 -0.634097 -0.327045 0.700687 -0.634097 -0.327045 
0.751489 -0.121076 0.64854 0.751489 -0.121076 0.64854 0.751489 -0.121076 0.64854 
-0.496674 0.623362 -0.603932 -0.496674 0.623362 -0.603932 -0.496674 0.623362 -0.603932 
-0.21069 0.821359 0.530074 -0.21069 0.821359 0.530074 -0.21069 0.821359 0.530074 
-0.402516 0.505186 -0.763393 -0.402516 0.505186 -0.763393 -0.402516 0.505186 -0.763393 
0.0758455 0.753155 0.653456 0.0758455 0.753155 0.653456 0.0758455 0.753155 0.653456 
-0.0295996 0.694922 -0.718476 -0.0295996 0.694922 -0.718476 -0.0295996 0.694922 -0.718476 
0.049611 0.479562 0.876105 0.049611 0.479562 0.876105 0.049611 0.479562 0.876105 
0.240289 -0.455841 -0.857012 0.240289 -0.455841 -0.857012 0.240289 -0.455841 -0.857012 
0.914487 -0.401361 -0.051216 0.914487 -0.401361 -0.051216 0.914487 -0.401361 -0.051216 
-0.519322 0.853814 0.0361573 -0.519322 0.853814 0.0361573 -0.519322 0.853814 0.0361573 
-0.356662 0.857807 0.37008 -0.356662 0.857807 0.37008 -0.356662 0.857807 0.37008 
-0.238907 0.845088 0.478277 -0.238907 0.845088 0.478277 -0.238907 0.845088 0.478277 
-0.46337 0.761824 -0.452672 -0.46337 0.761824 -0.452672 -0.46337 0.761824 -0.452672 
0.112771 0.984503 0.134302 0.112771 0.984503 0.134302 0.112771 0.984503 0.134302 
0.0986549 0.979656 0.174763 0.0986549 0.979656 0.174763 0.0986549 0.979656 0.174763 
-0.0408167 0.95827 0.282937 -0.0408167 0.95827 0.282937 -0.0408167 0.95827 0.282937 
-0.00885557 0.940151 0.340642 -0.00885557 0.940151 0.340642 -0.00885557 0.940151 0.340642 
-0.147691 0.842763 -0.517627 -0.147691 0.842763 -0.517627 -0.147691 0.842763 -0.517627 
-0.593378 0.518549 -0.615637 -0.593378 0.518549 -0.615637 -0.593378 0.518549 -0.615637 
-0.271488 0.118303 -0.955143 -0.271488 0.118303 -0.955143 -0.271488 0.118303 -0.955143 
-0.205856 0.689311 0.694603 -0.205856 0.689311 0.694603 -0.205856 0.689311 0.694603 
-0.149142 0.618419 0.771566 -0.149142 0.618419 0.771566 -0.149142 0.618419 0.771566 
0.429912 0.212313 0.877553 0.429912 0.212313 0.877553 0.429912 0.212313 0.877553 
0.513538 -0.570132 -0.641271 0.513538 -0.570132 -0.641271 0.513538 -0.570132 -0.641271 
0.754951 -0.0745613 0.651528 0.754951 -0.0745613 0.651528 0.754951 -0.0745613 0.651528 
0.661834 -0.540483 -0.519474 0.661834 -0.540483 -0.519474 0.661834 -0.540483 -0.519474 
0.84276 -0.537546 -0.0282851 0.84276 -0.537546 -0.0282851 0.84276 -0.537546 -0.0282851 
-0.670944 0.525093 -0.523556 -0.670944 0.525093 -0.523556 -0.670944 0.525093 -0.523556 
-0.420067 0.893759 0.157286 -0.420067 0.893759 0.157286 -0.420067 0.893759 0.157286 
-0.466687 0.685698 0.558589 -0.466687 0.685698 0.558589 -0.466687 0.685698 0.558589 
-0.632093 0.221426 -0.742583 -0.632093 0.221426 -0.742583 -0.632093 0.221426 -0.742583 
-0.365789 -0.266231 -0.891807 -0.365789 -0.266231 -0.891807 -0.365789 -0.266231 -0.891807 
-0.233327 -0.0722261 -0.969712 -0.233327 -0.0722261 -0.969712 -0.233327 -0.0722261 -0.969712 
0.471977 0.132967 0.871526 0.471977 0.132967 0.871526 0.471977 0.132967 0.871526 
0.308791 0.291862 0.905243 0.308791 0.291862 0.905243 0.308791 0.291862 0.905243 
0.648676 -0.667497 -0.365606 0.648676 -0.667497 -0.365606 0.648676 -0.667497 -0.365606 
0.823816 -0.0813626 0.560988 0.823816 -0.0813626 0.560988 0.823816 -0.0813626 0.560988 
-0.254003 0.521773 0.814393 -0.254003 0.521773 0.814393 -0.254003 0.521773 0.814393 
0.202773 -0.375176 -0.904503 0.202773 -0.375176 -0.904503 0.202773 -0.375176 -0.904503 
0.640399 0.025892 0.767606 0.640399 0.025892 0.767606 0.640399 0.025892 0.767606 
0.84179 -0.398262 0.364385 0.84179 -0.398262 0.364385 0.84179 -0.398262 0.364385 
-0.655628 0.570444 -0.494717 -0.655628 0.570444 -0.494717 -0.655628 0.570444 -0.494717 
-0.714068 0.621291 0.322652 -0.714068 0.621291 0.322652 -0.714068 0.621291 0.322652 
-0.644569 0.311486 -0.698217 -0.644569 0.311486 -0.698217 -0.644569 0.311486 -0.698217 
-0.872883 0.421818 0.245245 -0.872883 0.421818 0.245245 -0.872883 0.421818 0.245245 
-0.179523 0.530701 0.828328 -0.179523 0.530701 0.828328 -0.179523 0.530701 0.828328 
-0.22976 -0.228766 -0.945979 -0.22976 -0.228766 -0.945979 -0.22976 -0.228766 -0.945979 
0.0119254 -0.348454 -0.93725 0.0119254 -0.348454 -0.93725 0.0119254 -0.348454 -0.93725 
0.0519092 0.396213 0.91669 0.0519092 0.396213 0.91669 0.0519092 0.396213 0.91669 
0.34691 0.241078 0.906386 0.34691 0.241078 0.906386 0.34691 0.241078 0.906386 
0.19592 -0.38135 -0.903431 0.19592 -0.38135 -0.903431 0.19592 -0.38135 -0.903431 
0.373104 -0.383929 -0.844625 0.373104 -0.383929 -0.844625 0.373104 -0.383929 -0.844625 
0.769698 -0.448528 -0.454299 0.769698 -0.448528 -0.454299 0.769698 -0.448528 -0.454299 
0.930157 -0.277218 0.240747 0.930157 -0.277218 0.240747 0.930157 -0.277218 0.240747 
-0.454495 0.66632 0.591145 -0.454495 0.66632 0.591145 -0.454495 0.66632 0.591145 
-0.542773 0.0749116 -0.836532 -0.542773 0.0749116 -0.836532 -0.542773 0.0749116 -0.836532 
-0.139912 0.408361 0.902034 -0.139912 0.408361 0.902034 -0.139912 0.408361 0.902034 
0.125223 0.393625 0.910702 0.125223 0.393625 0.910702 0.125223 0.393625 0.910702 
0.457886 -0.367882 -0.809322 0.457886 -0.367882 -0.809322 0.457886 -0.367882 -0.809322 