# vtk DataFile Version 4.2
3D Slicer output. SPACE=LPS
ASCII
DATASET POLYDATA
POINTS 2016 double
5.9928636551 -6.4570326805 0.28550720215 5.9928636551 -6.8532214165 1.2745113373 4.0232343674 -5.9845824242 0.28550720215 
4.0232343674 -5.9845824242 0.28550720215 5.9928636551 -6.8532214165 1.2745113373 4.1897945404 -6.0444202423 1.2745113373 
5.9928636551 -6.0444202423 2.8451509476 4.1897945404 -6.0444202423 1.2745113373 5.9928636551 -6.8532214165 1.2745113373 
5.9928636551 -6.4570326805 0.28550720215 8.9473085403 -6.9710059166 2.2635145187 5.9928636551 -6.8532214165 1.2745113373 
8.9473085403 -6.0444202423 0.29323577881 8.9473085403 -6.9710059166 2.2635145187 5.9928636551 -6.4570326805 0.28550720215 
7.9624929428 -6.5807566643 3.2525177002 5.9928636551 -6.8532214165 1.2745113373 8.9473085403 -6.9710059166 2.2635145187 
7.9624929428 -6.5807566643 3.2525177002 5.9928636551 -6.0444202423 2.8451509476 5.9928636551 -6.8532214165 1.2745113373 
8.9473085403 -6.9710059166 2.2635145187 10.916937828 -6.4221534729 3.2525177002 7.9624929428 -6.5807566643 3.2525177002 
7.9624929428 -6.5807566643 3.2525177002 10.916937828 -6.4221534729 3.2525177002 9.9321231842 -6.0444202423 4.0423650742 
8.9473085403 -6.0444202423 0.29323577881 11.901752472 -5.4195165634 1.2745113373 11.631572723 -6.0444202423 2.2635145187 
8.9473085403 -6.0444202423 0.29323577881 11.631572723 -6.0444202423 2.2635145187 8.9473085403 -6.9710059166 2.2635145187 
11.631572723 -6.0444202423 2.2635145187 10.916937828 -6.4221534729 3.2525177002 8.9473085403 -6.9710059166 2.2635145187 
2.4198913574 -4.0880270004 1.2745113373 1.7689208984 -4.0880270004 0.28550720215 4.0232343674 -5.9845824242 0.28550720215 
2.4198913574 -4.0880270004 1.2745113373 4.0232343674 -5.9845824242 0.28550720215 4.1897945404 -6.0444202423 1.2745113373 
4.1897945404 -6.0444202423 1.2745113373 5.9928636551 -6.0444202423 2.8451509476 2.4198913574 -4.0880270004 1.2745113373 
4.0232343674 -4.0880270004 -1.4820632935 5.9928636551 -4.0880270004 -1.6232991219 5.9928636551 -6.4570326805 0.28550720215 
4.0232343674 -5.9845824242 0.28550720215 4.0232343674 -4.0880270004 -1.4820632935 5.9928636551 -6.4570326805 0.28550720215 
5.9928636551 -4.0880270004 -1.6232991219 8.9473085403 -3.1098308563 -1.8362584114 8.9473085403 -6.0444202423 0.29323577881 
5.9928636551 -6.4570326805 0.28550720215 5.9928636551 -4.0880270004 -1.6232991219 8.9473085403 -6.0444202423 0.29323577881 
7.9624929428 -6.5807566643 3.2525177002 9.9321231842 -5.0662236214 4.6291322708 5.9928636551 -6.0444202423 2.8451509476 
9.9321231842 -5.0662236214 4.6291322708 7.9624929428 -6.5807566643 3.2525177002 9.9321231842 -6.0444202423 4.0423650742 
10.916937828 -6.4221534729 3.2525177002 11.901752472 -5.4196162224 4.2415218353 9.9321231842 -6.0444202423 4.0423650742 
9.9321231842 -6.0444202423 4.0423650742 11.901752472 -5.4196162224 4.2415218353 11.901752472 -4.0880270004 5.0124254227 
9.9321231842 -5.0662236214 4.6291322708 9.9321231842 -6.0444202423 4.0423650742 11.901752472 -4.0880270004 5.0124254227 
11.631572723 -6.0444202423 2.2635145187 12.886568069 -5.4332461357 3.2525177002 10.916937828 -6.4221534729 3.2525177002 
12.886568069 -5.4332461357 3.2525177002 11.901752472 -5.4196162224 4.2415218353 10.916937828 -6.4221534729 3.2525177002 
4.0232343674 -5.9845824242 0.28550720215 1.7689208984 -4.0880270004 0.28550720215 1.422809124 -3.1098308563 -0.70349597931 
4.0232343674 -5.9845824242 0.28550720215 1.422809124 -3.1098308563 -0.70349597931 4.0232343674 -4.0880270004 -1.4820632935 
2.4198913574 -4.0880270004 1.2745113373 5.9928636551 -6.0444202423 2.8451509476 5.9928636551 -4.0880270004 3.627412796 
5.9928636551 -4.0880270004 3.627412796 5.9928636551 -6.0444202423 2.8451509476 9.9321231842 -5.0662236214 4.6291322708 
8.9473085403 -6.0444202423 0.29323577881 13.87138176 -2.1316337585 -0.87337732315 11.901752472 -5.4195165634 1.2745113373 
12.886568069 -5.4332461357 3.2525177002 14.856197357 -4.0630302429 4.2415218353 11.901752472 -5.4196162224 4.2415218353 
11.901752472 -5.4196162224 4.2415218353 14.856197357 -4.0630302429 4.2415218353 13.87138176 -3.1098308563 5.127951622 
11.901752472 -4.0880270004 5.0124254227 11.901752472 -5.4196162224 4.2415218353 13.87138176 -3.1098308563 5.127951622 
11.901752472 -5.4195165634 1.2745113373 15.841011047 -3.0856323242 1.2745113373 11.631572723 -6.0444202423 2.2635145187 
15.841011047 -3.0856323242 1.2745113373 12.886568069 -5.4332461357 3.2525177002 11.631572723 -6.0444202423 2.2635145187 
16.773626328 -3.1098308563 3.2525177002 12.886568069 -5.4332461357 3.2525177002 15.841011047 -3.0856323242 1.2745113373 
12.886568069 -5.4332461357 3.2525177002 16.773626328 -3.1098308563 3.2525177002 14.856197357 -4.0630302429 4.2415218353 
1.422809124 -3.1098308563 -0.70349597931 2.0536046028 -2.1316337585 -1.6955094337 4.0232343674 -4.0880270004 -1.4820632935 
5.0080490112 -2.1316337585 3.3618774414 2.0536046028 -2.1316337585 1.7696676254 5.9928636551 -4.0880270004 3.627412796 
4.0232343674 -4.0880270004 -1.4820632935 7.9624929428 -2.1316337585 -2.423520565 5.9928636551 -4.0880270004 -1.6232991219 
5.0080490112 -2.1316337585 3.3618774414 5.9928636551 -4.0880270004 3.627412796 7.9624929428 -3.1098308563 4.5002832413 
5.9928636551 -4.0880270004 -1.6232991219 7.9624929428 -2.1316337585 -2.423520565 8.9473085403 -3.1098308563 -1.8362584114 
5.9928636551 -4.0880270004 3.627412796 9.9321231842 -5.0662236214 4.6291322708 7.9624929428 -3.1098308563 4.5002832413 
13.87138176 -2.1316337585 -0.87337732315 8.9473085403 -6.0444202423 0.29323577881 8.9473085403 -3.1098308563 -1.8362584114 
11.901752472 -4.0880270004 5.0124254227 7.9624929428 -3.1098308563 4.5002832413 9.9321231842 -5.0662236214 4.6291322708 
13.87138176 -2.1316337585 5.3007144928 7.9624929428 -3.1098308563 4.5002832413 11.901752472 -4.0880270004 5.0124254227 
13.87138176 -2.1316337585 5.3007144928 11.901752472 -4.0880270004 5.0124254227 13.87138176 -3.1098308563 5.127951622 
11.901752472 -5.4195165634 1.2745113373 13.87138176 -2.1316337585 -0.87337732315 14.856197357 -2.9044322968 0.28550720215 
14.856197357 -2.9044322968 0.28550720215 15.841011047 -3.0856323242 1.2745113373 11.901752472 -5.4195165634 1.2745113373 
14.856197357 -4.0630302429 4.2415218353 15.841011047 -2.1316337585 4.9504423141 13.87138176 -3.1098308563 5.127951622 
17.828620911 -2.1316337585 2.2635145187 16.773626328 -3.1098308563 3.2525177002 15.841011047 -3.0856323242 1.2745113373 
14.856197357 -4.0630302429 4.2415218353 16.773626328 -3.1098308563 3.2525177002 15.841011047 -2.1316337585 4.9504423141 
1.422809124 -3.1098308563 -0.70349597931 1.7689208984 -4.0880270004 0.28550720215 0.22704458237 -0.17524147034 0.28550720215 
1.7689208984 -4.0880270004 0.28550720215 2.0536046028 -2.1316337585 1.7696676254 0.22704458237 -0.17524147034 0.28550720215 
1.7689208984 -4.0880270004 0.28550720215 2.4198913574 -4.0880270004 1.2745113373 2.0536046028 -2.1316337585 1.7696676254 
2.0536046028 -2.1316337585 1.7696676254 2.4198913574 -4.0880270004 1.2745113373 5.9928636551 -4.0880270004 3.627412796 
4.0232343674 -4.0880270004 -1.4820632935 2.0536046028 -2.1316337585 -1.6955094337 5.9928636551 -0.17524147034 -2.8890571594 
7.9624929428 -2.1316337585 -2.423520565 4.0232343674 -4.0880270004 -1.4820632935 5.9928636551 -0.17524147034 -2.8890571594 
13.87138176 -2.1316337585 5.3007144928 13.87138176 -3.1098308563 5.127951622 15.841011047 -2.1316337585 4.9504423141 
15.841011047 -3.0856323242 1.2745113373 14.856197357 -2.9044322968 0.28550720215 17.828620911 -2.1316337585 2.2635145187 
0.71072912216 -0.17524147034 -0.70349597931 1.422809124 -3.1098308563 -0.70349597931 0.22704458237 -0.17524147034 0.28550720215 
0.71072912216 -0.17524147034 -0.70349597931 2.0536046028 -2.1316337585 -1.6955094337 1.422809124 -3.1098308563 -0.70349597931 
5.0080490112 -2.1316337585 3.3618774414 2.0536046028 -0.17524147034 1.9135465622 2.0536046028 -2.1316337585 1.7696676254 
7.9624929428 -3.1098308563 4.5002832413 6.977678299 -0.17524147034 3.9806003571 5.0080490112 -2.1316337585 3.3618774414 
7.9624929428 -3.1098308563 4.5002832413 10.916937828 -0.17524147034 4.9085435867 6.977678299 -0.17524147034 3.9806003571 
10.916937828 -0.17524147034 4.9085435867 7.9624929428 -3.1098308563 4.5002832413 13.87138176 -2.1316337585 5.3007144928 
14.856197357 -2.9044322968 0.28550720215 18.795455933 1.498213768 -0.70349597931 17.828620911 -2.1316337585 2.2635145187 
16.773626328 -3.1098308563 3.2525177002 19.78027153 0.11853027344 3.2525177002 15.841011047 -2.1316337585 4.9504423141 
17.828620911 -2.1316337585 2.2635145187 19.78027153 0.11853027344 3.2525177002 16.773626328 -3.1098308563 3.2525177002 
2.0536046028 0.80295562744 -1.8001236916 2.0536046028 -2.1316337585 -1.6955094337 0.71072912216 -0.17524147034 -0.70349597931 
2.0536046028 -2.1316337585 1.7696676254 2.0536046028 -0.17524147034 1.9135465622 0.22704458237 -0.17524147034 0.28550720215 
5.0080490112 -2.1316337585 3.3618774414 6.977678299 -0.17524147034 3.9806003571 2.0536046028 -0.17524147034 1.9135465622 
7.9624929428 -2.1316337585 -2.423520565 9.9321231842 1.7811517715 -3.4545550346 8.9473085403 -3.1098308563 -1.8362584114 
8.9473085403 -3.1098308563 -1.8362584114 9.9321231842 1.7811517715 -3.4545550346 12.886568069 1.7811517715 -3.0142068863 
13.87138176 -0.17524147034 5.1799993515 10.916937828 -0.17524147034 4.9085435867 13.87138176 -2.1316337585 5.3007144928 
15.841011047 1.7811517715 -2.0526685715 13.87138176 -2.1316337585 -0.87337732315 8.9473085403 -3.1098308563 -1.8362584114 
15.841011047 1.7811517715 -2.0526685715 8.9473085403 -3.1098308563 -1.8362584114 12.886568069 1.7811517715 -3.0142068863 
15.841011047 1.7811517715 -2.0526685715 18.795455933 1.498213768 -0.70349597931 13.87138176 -2.1316337585 -0.87337732315 
15.841011047 -2.1316337585 4.9504423141 13.87138176 -0.17524147034 5.1799993515 13.87138176 -2.1316337585 5.3007144928 
18.795455933 1.498213768 -0.70349597931 14.856197357 -2.9044322968 0.28550720215 13.87138176 -2.1316337585 -0.87337732315 
[...]
CELL_DATA 672
FIELD FieldData 1
GroupIds 1 672 float
0 0 0 0 0 0 0 0 0 
0 0 0 0 0 0 0 0 0 
0 0 0 0 0 0 0 0 0 
0 0 0 0 0 0 0 0 0 
0 0 0 0 0 0 0 0 0 
0 0 0 0 0 0 0 0 0 
0 0 0 0 0 0 0 0 0 
0 0 0 0 0 0 0 0 0 
0 0 0 0 0 0 0 0 0 
0 0 0 0 0 0 0 0 0 
0 0 0 0 0 0 0 0 0 
0 0 0 0 0 0 0 0 0 
0 0 0 0 0 0 0 0 0 
0 0 0 0 0 0 0 0 0 
0 0 0 0 0 0 0 0 0 
0 0 0 0 0 0 0 0 0 
0 0 0 0 0 0 0 0 0 
0 0 0 0 0 0 0 0 0 
0 0 0 0 0 0 0 0 0 
0 0 0 0 0 0 0 0 0 
0 0 0 0 0 0 0 0 0 
0 0 0 0 0 0 0 0 0 
0 0 0 0 0 0 0 0 0 
0 0 0 0 0 0 0 0 0 
0 0 0 0 0 0 0 0 0 
0 0 0 0 0 0 0 0 0 
0 0 0 0 0 0 0 0 0 
0 0 0 0 0 0 0 0 0 
0 0 0 0 0 0 0 0 0 
0 0 0 0 0 0 0 0 0 
0 0 0 0 0 0 0 0 0 
0 0 0 0 0 0 0 0 0 
0 0 0 0 0 0 0 0 0 
0 0 0 0 0 0 0 0 0 
0 0 0 0 0 0 0 0 0 
0 0 0 0 0 0 0 0 0 
0 0 0 0 0 0 0 0 0 
0 0 0 0 0 0 0 0 0 
0 0 0 0 0 0 0 0 0 
0 0 0 0 0 0 0 0 0 
0 0 0 0 0 0 0 0 0 
0 0 0 0 0 0 0 0 0 
0 0 0 0 0 0 0 0 0 
0 0 0 0 0 0 0 0 0 
0 0 0 0 0 0 0 0 0 
0 0 0 0 0 0 0 0 0 
0 0 0 0 0 0 0 0 0 
0 0 0 0 0 0 0 0 0 
0 0 0 0 0 0 0 0 0 
0 0 0 0 0 0 0 0 0 
0 0 0 0 0 0 0 0 0 
0 0 0 0 0 0 0 0 0 
0 0 0 0 0 0 0 0 0 
0 0 0 0 0 0 0 0 0 
0 0 0 0 0 0 0 0 0 
0 0 0 0 0 0 0 0 0 
0 0 0 0 0 0 0 0 0 
0 0 0 0 0 0 0 0 0 
0 0 0 0 0 0 0 0 0 
0 0 0 0 0 0 0 0 0 
0 0 0 0 0 0 0 0 0 
0 0 0 0 0 0 0 0 0 
0 0 0 0 0 0 0 0 0 
0 0 0 0 0 0 0 0 0 
0 0 0 0 0 0 0 0 0 
0 0 0 0 0 0 0 0 0 
0 0 0 0 0 0 0 0 0 
0 0 0 0 0 0 0 0 0 
0 0 0 0 0 0 0 0 0 
0 0 0 0 0 0 0 0 0 
0 0 0 0 0 0 0 0 0 
0 0 0 0 0 0 0 0 0 
0 0 0 0 0 0 0 0 0 
0 0 0 0 0 0 0 0 0 
0 0 0 0 0 0 
POINT_DATA 2016
NORMALS Normals float
-0.217343 -0.906096 -0.362976 -0.217343 -0.906096 -0.362976 -0.217343 -0.906096 -0.362976 
-0.40924 -0.912324 0.0137225 -0.40924 -0.912324 0.0137225 -0.40924 -0.912324 0.0137225 
-0.370429 -0.825801 0.425247 -0.370429 -0.825801 0.425247 -0.370429 -0.825801 0.425247 
0.0871417 -0.924755 -0.370451 0.0871417 -0.924755 -0.370451 0.0871417 -0.924755 -0.370451 
0.12647 -0.89766 -0.422153 0.12647 -0.89766 -0.422153 0.12647 -0.89766 -0.422153 
-0.123671 -0.958936 0.255238 -0.123671 -0.958936 0.255238 -0.123671 -0.958936 0.255238 
-0.319164 -0.84255 0.433871 -0.319164 -0.84255 0.433871 -0.319164 -0.84255 0.433871 
0.0489317 -0.911495 0.40839 0.0489317 -0.911495 0.40839 0.0489317 -0.911495 0.40839 
0.0470814 -0.877027 0.478129 0.0470814 -0.877027 0.478129 0.0470814 -0.877027 0.478129 
0.323482 -0.83734 -0.440705 0.323482 -0.83734 -0.440705 0.323482 -0.83734 -0.440705 
0.298164 -0.863765 -0.406213 0.298164 -0.863765 -0.406213 0.298164 -0.863765 -0.406213 
0.323768 -0.937938 -0.124281 0.323768 -0.937938 -0.124281 0.323768 -0.937938 -0.124281 
-0.592755 -0.70457 0.390156 -0.592755 -0.70457 0.390156 -0.592755 -0.70457 0.390156 
-0.738946 -0.668507 0.0840007 -0.738946 -0.668507 0.0840007 -0.738946 -0.668507 0.0840007 
-0.564665 -0.510839 0.648226 -0.564665 -0.510839 0.648226 -0.564665 -0.510839 0.648226 
-0.05575 -0.626442 -0.777472 -0.05575 -0.626442 -0.777472 -0.05575 -0.626442 -0.777472 
-0.161396 -0.672854 -0.721955 -0.161396 -0.672854 -0.721955 -0.161396 -0.672854 -0.721955 
0.134872 -0.581948 -0.801964 0.134872 -0.581948 -0.801964 0.134872 -0.581948 -0.801964 
0.0893027 -0.624911 -0.775572 0.0893027 -0.624911 -0.775572 0.0893027 -0.624911 -0.775572 
-0.290283 -0.408889 0.865185 -0.290283 -0.408889 0.865185 -0.290283 -0.408889 0.865185 
-0.199711 -0.504036 0.840276 -0.199711 -0.504036 0.840276 -0.199711 -0.504036 0.840276 
0.185366 -0.776366 0.602408 0.185366 -0.776366 0.602408 0.185366 -0.776366 0.602408 
0.0712472 -0.499755 0.863232 0.0712472 -0.499755 0.863232 0.0712472 -0.499755 0.863232 
0.0882444 -0.512392 0.854206 0.0882444 -0.512392 0.854206 0.0882444 -0.512392 0.854206 
0.448633 -0.893553 -0.0171039 0.448633 -0.893553 -0.0171039 0.448633 -0.893553 -0.0171039 
0.407775 -0.812176 0.417241 0.407775 -0.812176 0.417241 0.407775 -0.812176 0.417241 
-0.568456 -0.675687 -0.469367 -0.568456 -0.675687 -0.469367 -0.568456 -0.675687 -0.469367 
-0.42942 -0.61573 -0.660662 -0.42942 -0.61573 -0.660662 -0.42942 -0.61573 -0.660662 
-0.521666 -0.316749 0.792171 -0.521666 -0.316749 0.792171 -0.521666 -0.316749 0.792171 
-0.311929 -0.352745 0.882197 -0.311929 -0.352745 0.882197 -0.311929 -0.352745 0.882197 
0.359641 -0.651698 -0.667794 0.359641 -0.651698 -0.667794 0.359641 -0.651698 -0.667794 
0.383616 -0.835459 0.393505 0.383616 -0.835459 0.393505 0.383616 -0.835459 0.393505 
0.237923 -0.518162 0.821523 0.237923 -0.518162 0.821523 0.237923 -0.518162 0.821523 
0.194295 -0.49148 0.848939 0.194295 -0.49148 0.848939 0.194295 -0.49148 0.848939 
0.472552 -0.7976 -0.374871 0.472552 -0.7976 -0.374871 0.472552 -0.7976 -0.374871 
0.538592 -0.824407 -0.173988 0.538592 -0.824407 -0.173988 0.538592 -0.824407 -0.173988 
0.497461 -0.832249 -0.244731 0.497461 -0.832249 -0.244731 0.497461 -0.832249 -0.244731 
0.50602 -0.846568 0.165125 0.50602 -0.846568 0.165125 0.50602 -0.846568 0.165125 
-0.415781 -0.501378 -0.758779 -0.415781 -0.501378 -0.758779 -0.415781 -0.501378 -0.758779 
-0.471071 -0.11849 0.874101 -0.471071 -0.11849 0.874101 -0.471071 -0.11849 0.874101 
-0.0677989 -0.31848 -0.945502 -0.0677989 -0.31848 -0.945502 -0.0677989 -0.31848 -0.945502 
-0.377342 -0.06456 0.923821 -0.377342 -0.06456 0.923821 -0.377342 -0.06456 0.923821 
0.0845238 -0.448948 -0.889551 0.0845238 -0.448948 -0.889551 0.0845238 -0.448948 -0.889551 
-0.293935 -0.234903 0.926511 -0.293935 -0.234903 0.926511 -0.293935 -0.234903 0.926511 
0.265103 -0.5663 -0.7804 0.265103 -0.5663 -0.7804 0.265103 -0.5663 -0.7804 
-0.149282 -0.0854132 0.985099 -0.149282 -0.0854132 0.985099 -0.149282 -0.0854132 0.985099 
-0.132102 -0.0130579 0.99115 -0.132102 -0.0130579 0.99115 -0.132102 -0.0130579 0.99115 
0.0286049 -0.173851 0.984357 0.0286049 -0.173851 0.984357 0.0286049 -0.173851 0.984357 
0.31493 -0.644076 -0.697126 0.31493 -0.644076 -0.697126 0.31493 -0.644076 -0.697126 
0.424404 -0.716333 -0.553849 0.424404 -0.716333 -0.553849 0.424404 -0.716333 -0.553849 
0.304106 -0.46105 0.833638 0.304106 -0.46105 0.833638 0.304106 -0.46105 0.833638 
0.518442 -0.816384 -0.254429 0.518442 -0.816384 -0.254429 0.518442 -0.816384 -0.254429 
0.581519 -0.524711 0.621703 0.581519 -0.524711 0.621703 0.581519 -0.524711 0.621703 
-0.929733 -0.366371 -0.0369986 -0.929733 -0.366371 -0.0369986 -0.929733 -0.366371 -0.0369986 
-0.775876 -0.305743 0.551849 -0.775876 -0.305743 0.551849 -0.775876 -0.305743 0.551849 
-0.801046 -0.283423 0.527255 -0.801046 -0.283423 0.527255 -0.801046 -0.283423 0.527255 
-0.524673 -0.299883 0.796736 -0.524673 -0.299883 0.796736 -0.524673 -0.299883 0.796736 
-0.157882 -0.262798 -0.951846 -0.157882 -0.262798 -0.951846 -0.157882 -0.262798 -0.951846 
-0.0765076 -0.303059 -0.949896 -0.0765076 -0.303059 -0.949896 -0.0765076 -0.303059 -0.949896 
0.172501 -0.171315 0.969997 0.172501 -0.171315 0.969997 0.172501 -0.171315 0.969997 
0.566103 -0.500077 -0.655325 0.566103 -0.500077 -0.655325 0.566103 -0.500077 -0.655325 
-0.877713 -0.212978 -0.429256 -0.877713 -0.212978 -0.429256 -0.877713 -0.212978 -0.429256 
-0.740282 -0.17963 -0.647854 -0.740282 -0.17963 -0.647854 -0.740282 -0.17963 -0.647854 
-0.473422 -0.0646048 0.878464 -0.473422 -0.0646048 0.878464 -0.473422 -0.0646048 0.878464 
-0.344525 0.0503887 0.937424 -0.344525 0.0503887 0.937424 -0.344525 0.0503887 0.937424 
-0.22825 0.0949933 0.968957 -0.22825 0.0949933 0.968957 -0.22825 0.0949933 0.968957 
-0.133706 -0.00326003 0.991016 -0.133706 -0.00326003 0.991016 -0.133706 -0.00326003 0.991016 
0.541745 -0.613738 -0.574315 0.541745 -0.613738 -0.574315 0.541745 -0.613738 -0.574315 
0.572941 -0.533593 0.622108 0.572941 -0.533593 0.622108 0.572941 -0.533593 0.622108 
0.727671 -0.677697 0.105933 0.727671 -0.677697 0.105933 0.727671 -0.677697 0.105933 
-0.619974 -0.027953 -0.784124 -0.619974 -0.027953 -0.784124 -0.619974 -0.027953 -0.784124 
-0.664374 -0.054818 0.745387 -0.664374 -0.054818 0.745387 -0.664374 -0.054818 0.745387 
-0.385216 0.097609 0.91765 -0.385216 0.097609 0.91765 -0.385216 0.097609 0.91765 
0.204392 -0.344343 -0.916325 0.204392 -0.344343 -0.916325 0.204392 -0.344343 -0.916325 
0.138838 -0.336168 -0.931512 0.138838 -0.336168 -0.931512 0.138838 -0.336168 -0.931512 
-0.0913229 0.0613285 0.993931 -0.0913229 0.0613285 0.993931 -0.0913229 0.0613285 0.993931 
0.251051 -0.392991 -0.884608 0.251051 -0.392991 -0.884608 0.251051 -0.392991 -0.884608 
0.279189 -0.431465 -0.857841 0.279189 -0.431465 -0.857841 0.279189 -0.431465 -0.857841 
0.342073 -0.424812 -0.838165 0.342073 -0.424812 -0.838165 0.342073 -0.424812 -0.838165 
0.174767 0.060638 0.982741 0.174767 0.060638 0.982741 0.174767 0.060638 0.982741 
0.425435 -0.54325 -0.723798 0.425435 -0.54325 -0.723798 0.425435 -0.54325 -0.723798 
0.131796 0.0163907 0.991141 0.131796 0.0163907 0.991141 0.131796 0.0163907 0.991141 
0.559806 -0.45992 0.689268 0.559806 -0.45992 0.689268 0.559806 -0.45992 0.689268 
0.689271 -0.692058 0.214386 0.689271 -0.692058 0.214386 0.689271 -0.692058 0.214386 
-0.870436 0.247228 -0.425698 -0.870436 0.247228 -0.425698 -0.870436 0.247228 -0.425698 
-0.653802 0.185698 0.733525 -0.653802 0.185698 0.733525 -0.653802 0.185698 0.733525 
-0.239188 -0.107138 -0.965044 -0.239188 -0.107138 -0.965044 -0.239188 -0.107138 -0.965044 
-0.0163903 -0.247049 -0.968864 -0.0163903 -0.247049 -0.968864 -0.0163903 -0.247049 -0.968864 
-0.2213 0.261634 0.939454 -0.2213 0.261634 0.939454 -0.2213 0.261634 0.939454 
0.57038 -0.402162 0.716193 0.57038 -0.402162 0.716193 0.57038 -0.402162 0.716193 
-0.803212 0.331424 -0.494983 -0.803212 0.331424 -0.494983 -0.803212 0.331424 -0.494983 
-0.724746 0.299047 -0.620736 -0.724746 0.299047 -0.620736 -0.724746 0.299047 -0.620736 
-0.64644 0.201339 0.73592 -0.64644 0.201339 0.73592 -0.64644 0.201339 0.73592 
-0.411403 0.21882 0.884797 -0.411403 0.21882 0.884797 -0.411403 0.21882 0.884797 
-0.306942 -0.0339063 -0.951124 -0.306942 -0.0339063 -0.951124 -0.306942 -0.0339063 -0.951124 
-0.379542 0.196183 0.904135 -0.379542 0.196183 0.904135 -0.379542 0.196183 0.904135 
-0.32659 0.253575 0.910516 -0.32659 0.253575 0.910516 -0.32659 0.253575 0.910516 
-0.0875408 -0.109917 -0.990078 -0.0875408 -0.109917 -0.990078 -0.0875408 -0.109917 -0.990078 
-0.189388 0.318006 0.92898 -0.189388 0.318006 0.92898 -0.189388 0.318006 0.92898 
-0.053713 0.258244 0.964585 -0.053713 0.258244 0.964585 -0.053713 0.258244 0.964585 
0.30907 0.0376969 0.950292 0.30907 0.0376969 0.950292 0.30907 0.0376969 0.950292 
0.490714 -0.626056 -0.606014 0.490714 -0.626056 -0.606014 0.490714 -0.626056 -0.606014 
0.702847 -0.705689 -0.0894948 0.702847 -0.705689 -0.0894948 0.702847 -0.705689 -0.0894948 
0.680552 -0.479842 0.553715 0.680552 -0.479842 0.553715 0.680552 -0.479842 0.553715 
-0.846813 0.508803 -0.155007 -0.846813 0.508803 -0.155007 -0.846813 0.508803 -0.155007 
-0.77121 0.463377 0.436484 -0.77121 0.463377 0.436484 -0.77121 0.463377 0.436484 
-0.321902 0.0329134 -0.946201 -0.321902 0.0329134 -0.946201 -0.321902 0.0329134 -0.946201 
-0.21285 0.0339672 -0.976494 -0.21285 0.0339672 -0.976494 -0.21285 0.0339672 -0.976494 
-0.0876775 -0.0948463 -0.991623 -0.0876775 -0.0948463 -0.991623 -0.0876775 -0.0948463 -0.991623 
-0.178507 0.448835 0.875604 -0.178507 0.448835 0.875604 -0.178507 0.448835 0.875604 
0.145186 -0.173336 -0.974102 0.145186 -0.173336 -0.974102 0.145186 -0.173336 -0.974102 
-0.0869616 0.310875 0.946464 -0.0869616 0.310875 0.946464 -0.0869616 0.310875 0.946464 
0.323146 -0.489047 -0.810191 0.323146 -0.489047 -0.810191 0.323146 -0.489047 -0.810191 
0.131117 0.102734 0.986029 0.131117 0.102734 0.986029 0.131117 0.102734 0.986029 
0.487165 -0.635745 -0.598747 0.487165 -0.635745 -0.598747 0.487165 -0.635745 -0.598747 
-0.620024 0.340525 -0.706833 -0.620024 0.340525 -0.706833 -0.620024 0.340525 -0.706833 
-0.544685 0.545812 0.636716 -0.544685 0.545812 0.636716 -0.544685 0.545812 0.636716 
-0.494396 0.691048 0.527281 -0.494396 0.691048 0.527281 -0.494396 0.691048 0.527281 
-0.390499 0.377074 0.839837 -0.390499 0.377074 0.839837 -0.390499 0.377074 0.839837 
-0.461805 0.262453 -0.847263 -0.461805 0.262453 -0.847263 -0.461805 0.262453 -0.847263 
-0.261253 0.39537 0.880585 -0.261253 0.39537 0.880585 -0.261253 0.39537 0.880585 
-0.262758 0.401321 0.877439 -0.262758 0.401321 0.877439 -0.262758 0.401321 0.877439 
0.0283157 -0.0563416 -0.99801 0.0283157 -0.0563416 -0.99801 0.0283157 -0.0563416 -0.99801 
-0.205288 0.516265 0.831461 -0.205288 0.516265 0.831461 -0.205288 0.516265 0.831461 
0.308371 -0.0844637 -0.947509 0.308371 -0.0844637 -0.947509 0.308371 -0.0844637 -0.947509 
0.259305 -0.34194 -0.903237 0.259305 -0.34194 -0.903237 0.259305 -0.34194 -0.903237 
0.0585308 0.220473 0.973635 0.0585308 0.220473 0.973635 0.0585308 0.220473 0.973635 
0.383893 -0.500976 -0.77566 0.383893 -0.500976 -0.77566 0.383893 -0.500976 -0.77566 
0.690619 -0.473564 0.546611 0.690619 -0.473564 0.546611 0.690619 -0.473564 0.546611 
0.7014 -0.617988 -0.355146 0.7014 -0.617988 -0.355146 0.7014 -0.617988 -0.355146 
0.747647 -0.658735 -0.0842186 0.747647 -0.658735 -0.0842186 0.747647 -0.658735 -0.0842186 
0.769609 -0.527728 0.359451 0.769609 -0.527728 0.359451 0.769609 -0.527728 0.359451 
-0.684647 0.584745 -0.435122 -0.684647 0.584745 -0.435122 -0.684647 0.584745 -0.435122 
-0.690504 0.691932 -0.210797 -0.690504 0.691932 -0.210797 -0.690504 0.691932 -0.210797 
-0.760153 0.649233 0.0257799 -0.760153 0.649233 0.0257799 -0.760153 0.649233 0.0257799 
-0.275748 0.625597 0.729789 -0.275748 0.625597 0.729789 -0.275748 0.625597 0.729789 
-0.426967 0.325575 -0.843623 -0.426967 0.325575 -0.843623 -0.426967 0.325575 -0.843623 
-0.23254 0.575828 0.783803 -0.23254 0.575828 0.783803 -0.23254 0.575828 0.783803 
-0.239186 0.121729 -0.963313 -0.239186 0.121729 -0.963313 -0.239186 0.121729 -0.963313 
-0.11287 0.588274 0.800746 -0.11287 0.588274 0.800746 -0.11287 0.588274 0.800746 
-0.0029533 0.415935 0.90939 -0.0029533 0.415935 0.90939 -0.0029533 0.415935 0.90939 
0.0917797 0.137001 -0.98631 0.0917797 0.137001 -0.98631 0.0917797 0.137001 -0.98631 
0.257257 -0.187704 -0.947938 0.257257 -0.187704 -0.947938 0.257257 -0.187704 -0.947938 
-0.123291 0.452681 0.883108 -0.123291 0.452681 0.883108 -0.123291 0.452681 0.883108 
-0.0916737 0.408657 0.908072 -0.0916737 0.408657 0.908072 -0.0916737 0.408657 0.908072 
0.0574599 0.288275 0.955822 0.0574599 0.288275 0.955822 0.0574599 0.288275 0.955822 
0.310928 0.00262685 0.95043 0.310928 0.00262685 0.95043 0.310928 0.00262685 0.95043 
0.500871 -0.0887431 0.860961 0.500871 -0.0887431 0.860961 0.500871 -0.0887431 0.860961 
0.677556 -0.643492 -0.356141 0.677556 -0.643492 -0.356141 0.677556 -0.643492 -0.356141 
-0.65702 0.600189 -0.456177 -0.65702 0.600189 -0.456177 -0.65702 0.600189 -0.456177 
-0.43115 0.393856 -0.81178 -0.43115 0.393856 -0.81178 -0.43115 0.393856 -0.81178 
-0.248466 0.789113 0.561752 -0.248466 0.789113 0.561752 -0.248466 0.789113 0.561752 
-0.0215784 0.691726 0.721837 -0.0215784 0.691726 0.721837 -0.0215784 0.691726 0.721837 
-0.015598 0.338387 -0.940878 -0.015598 0.338387 -0.940878 -0.015598 0.338387 -0.940878 
0.215046 0.196322 -0.956668 0.215046 0.196322 -0.956668 0.215046 0.196322 -0.956668 
-0.151409 0.420214 -0.894704 -0.151409 0.420214 -0.894704 -0.151409 0.420214 -0.894704 
0.0472944 0.242409 -0.969021 0.0472944 0.242409 -0.969021 0.0472944 0.242409 -0.969021 
-0.168381 0.53125 0.830314 -0.168381 0.53125 0.830314 -0.168381 0.53125 0.830314 
-0.121235 0.450652 0.884429 -0.121235 0.450652 0.884429 -0.121235 0.450652 0.884429 
0.114128 -0.317119 -0.941494 0.114128 -0.317119 -0.941494 0.114128 -0.317119 -0.941494 
0.0290138 0.28863 0.957001 0.0290138 0.28863 0.957001 0.0290138 0.28863 0.957001 
0.378202 -0.459186 -0.803811 0.378202 -0.459186 -0.803811 0.378202 -0.459186 -0.803811 
0.373599 -0.45364 -0.809095 0.373599 -0.45364 -0.809095 0.373599 -0.45364 -0.809095 
0.67203 -0.611395 -0.417817 0.67203 -0.611395 -0.417817 0.67203 -0.611395 -0.417817 
0.8068 -0.563984 0.176058 0.8068 -0.563984 0.176058 0.8068 -0.563984 0.176058 
0.765437 -0.53507 0.357502 0.765437 -0.53507 0.357502 0.765437 -0.53507 0.357502 
-0.471826 0.824444 -0.312527 -0.471826 0.824444 -0.312527 -0.471826 0.824444 -0.312527 
-0.489445 0.855231 0.170364 -0.489445 0.855231 0.170364 -0.489445 0.855231 0.170364 
-0.417136 0.45432 -0.787141 -0.417136 0.45432 -0.787141 -0.417136 0.45432 -0.787141 
-0.197554 0.813401 0.54713 -0.197554 0.813401 0.54713 -0.197554 0.813401 0.54713 
0.00081014 0.829754 0.558129 0.00081014 0.829754 0.558129 0.00081014 0.829754 0.558129 
-0.0143567 0.499836 -0.866001 -0.0143567 0.499836 -0.866001 -0.0143567 0.499836 -0.866001 
0.212787 0.895352 0.391237 0.212787 0.895352 0.391237 0.212787 0.895352 0.391237 
-0.081394 0.786783 -0.611839 -0.081394 0.786783 -0.611839 -0.081394 0.786783 -0.611839 
-0.0583954 0.775173 -0.629045 -0.0583954 0.775173 -0.629045 -0.0583954 0.775173 -0.629045 
-0.210288 0.895847 0.391454 -0.210288 0.895847 0.391454 -0.210288 0.895847 0.391454 
-0.161762 0.682775 0.712496 -0.161762 0.682775 0.712496 -0.161762 0.682775 0.712496 
-0.133995 0.635012 0.760792 -0.133995 0.635012 0.760792 -0.133995 0.635012 0.760792 
-0.395022 0.692781 0.603334 -0.395022 0.692781 0.603334 -0.395022 0.692781 0.603334 
0.0703253 -0.19376 -0.978525 0.0703253 -0.19376 -0.978525 0.0703253 -0.19376 -0.978525 
0.546405 -0.51252 -0.662394 0.546405 -0.51252 -0.662394 0.546405 -0.51252 -0.662394 
0.661723 -0.279129 0.695852 0.661723 -0.279129 0.695852 0.661723 -0.279129 0.695852 
0.329871 -0.100435 0.938668 0.329871 -0.100435 0.938668 0.329871 -0.100435 0.938668 
-0.194518 0.800902 -0.56632 -0.194518 0.800902 -0.56632 -0.194518 0.800902 -0.56632 
-0.388959 0.879847 -0.273092 -0.388959 0.879847 -0.273092 -0.388959 0.879847 -0.273092 
0.236103 0.900575 -0.364994 0.236103 0.900575 -0.364994 0.236103 0.900575 -0.364994 
-0.0358843 0.99355 -0.107568 -0.0358843 0.99355 -0.107568 -0.0358843 0.99355 -0.107568 
-0.0707759 0.939517 -0.335109 -0.0707759 0.939517 -0.335109 -0.0707759 0.939517 -0.335109 
-0.212557 0.897176 0.387162 -0.212557 0.897176 0.387162 -0.212557 0.897176 0.387162 
-0.157817 0.725543 -0.669836 -0.157817 0.725543 -0.669836 -0.157817 0.725543 -0.669836 
-0.208001 0.956256 -0.205692 -0.208001 0.956256 -0.205692 -0.208001 0.956256 -0.205692 
-0.545092 0.769761 0.332179 -0.545092 0.769761 0.332179 -0.545092 0.769761 0.332179 
-0.114045 0.729957 -0.673911 -0.114045 0.729957 -0.673911 -0.114045 0.729957 -0.673911 
-0.433311 0.759933 0.484503 -0.433311 0.759933 0.484503 -0.433311 0.759933 0.484503 
0.0209868 -0.0699016 -0.997333 0.0209868 -0.0699016 -0.997333 0.0209868 -0.0699016 -0.997333 
-0.00557146 -0.0832048 -0.996517 -0.00557146 -0.0832048 -0.996517 -0.00557146 -0.0832048 -0.996517 
-0.17554 0.388952 0.904379 -0.17554 0.388952 0.904379 -0.17554 0.388952 0.904379 
0.200376 -0.234734 -0.951183 0.200376 -0.234734 -0.951183 0.200376 -0.234734 -0.951183 
0.823945 -0.518132 0.229464 0.823945 -0.518132 0.229464 0.823945 -0.518132 0.229464 
0.509447 -0.320362 0.798644 0.509447 -0.320362 0.798644 0.509447 -0.320362 0.798644 
-0.569204 0.803811 -0.172901 -0.569204 0.803811 -0.172901 -0.569204 0.803811 -0.172901 
-0.393066 0.485305 -0.781011 -0.393066 0.485305 -0.781011 -0.393066 0.485305 -0.781011 
-0.627891 0.775236 0.0690099 -0.627891 0.775236 0.0690099 -0.627891 0.775236 0.0690099 
-0.102541 0.0957981 -0.990105 -0.102541 0.0957981 -0.990105 -0.102541 0.0957981 -0.990105 
-0.533809 0.557244 -0.636024 -0.533809 0.557244 -0.636024 -0.533809 0.557244 -0.636024 
-0.210399 0.164698 -0.963643 -0.210399 0.164698 -0.963643 -0.210399 0.164698 -0.963643 
-0.382956 0.49786 0.778126 -0.382956 0.49786 0.778126 -0.382956 0.49786 0.778126 
0.0592718 0.207765 0.976381 0.0592718 0.207765 0.976381 0.0592718 0.207765 0.976381 
0.305039 -0.270791 -0.91303 0.305039 -0.270791 -0.91303 0.305039 -0.270791 -0.91303 
-0.628885 0.579693 0.518131 -0.628885 0.579693 0.518131 -0.628885 0.579693 0.518131 
-0.580712 0.591633 0.559236 -0.580712 0.591633 0.559236 -0.580712 0.591633 0.559236 
-0.0963155 0.15681 0.982921 -0.0963155 0.15681 0.982921 -0.0963155 0.15681 0.982921 
0.255011 0.0659245 0.964688 0.255011 0.0659245 0.964688 0.255011 0.0659245 0.964688 