# vtk DataFile Version 5.1
vtk output
ASCII
DATASET POLYDATA
POINTS 1002 float
-11.7791 -0.370727 -2.65489 -23.8324 -13.1984 -5.10591 -10.9681 -3.41865 3.7055 
-22.5093 -14.2236 0.296812 -15.2534 -7.54872 -3.43292 -14.2455 -8.40818 0.10335 
-21.4345 -3.01736 -1.05258 -22.0433 -4.71574 3.07983 -19.3388 -24.5173 -4.68689 
-2.2205 -3.6187 -0.140183 -28.1301 -16.7535 -2.38867 -10.8383 3.46883 2.28087 
-12.8027 -0.918104 -2.83215 -13.9889 -1.55301 -3.05308 -15.3264 -2.36014 -3.27787 
-16.8409 -3.53277 -3.38626 -18.515 -5.12953 -3.41951 -20.1626 -6.93482 -3.60125 
-21.5407 -8.70104 -3.97531 -22.5662 -10.3268 -4.40248 -23.3055 -11.8149 -4.79393 
-11.6132 -0.776187 -2.92418 -11.4924 -1.35051 -3.12453 -11.4161 -2.05604 -3.28015 
-11.3395 -2.74686 -3.47861 -11.3582 -3.47879 -3.67956 -11.7918 -4.41333 -3.7928 
-12.6794 -5.41245 -3.83039 -13.6474 -6.24148 -3.79097 -14.4817 -6.90973 -3.64426 
-12.6014 -0.343286 -2.47724 -13.552 -0.327988 -2.33105 -14.6001 -0.338736 -2.20622 
-15.6867 -0.424585 -2.06037 -16.7749 -0.63646 -1.88806 -17.8385 -0.997576 -1.69279 
-18.8592 -1.45986 -1.49582 -19.8187 -1.95101 -1.33196 -20.6811 -2.46612 -1.1904 
-10.6811 -0.102158 -2.65823 -9.46587 0.0761978 -2.62102 -8.09879 0.0567468 -2.48932 
-6.62754 -0.207332 -2.25803 -5.19715 -0.626779 -2.00925 -3.95442 -1.10593 -1.79486 
-3.01214 -1.66121 -1.52675 -2.43187 -2.31098 -1.1172 -2.19081 -2.99204 -0.618668 
-11.3288 0.178034 -2.35487 -10.9232 0.784288 -2.02501 -10.594 1.42114 -1.68726 
-10.3754 1.99973 -1.28281 -10.2307 2.47036 -0.745078 -10.1411 2.87693 -0.164213 
-10.1982 3.24756 0.392546 -10.4018 3.50985 1.01144 -10.63 3.57985 1.68502 
-23.3262 -13.1513 -5.17755 -22.7633 -13.0203 -5.20534 -22.1522 -12.847 -5.11643 
-21.4516 -12.5994 -4.91854 -20.6132 -12.1226 -4.68284 -19.6968 -11.3005 -4.37557 
-18.7861 -10.2001 -3.97952 -17.7829 -9.05177 -3.64199 -16.5693 -8.12196 -3.4745 
-23.9937 -12.2981 -4.83452 -24.0528 -11.2726 -4.49586 -24.0081 -10.1801 -4.09632 
-23.8641 -9.03141 -3.65998 -23.5777 -7.81588 -3.21851 -23.1587 -6.64226 -2.76344 
-22.7181 -5.61204 -2.2918 -22.3003 -4.67766 -1.84751 -21.8702 -3.79875 -1.44397 
-23.8994 -14.6281 -5.37279 -23.7938 -16.2278 -5.55915 -23.5355 -17.9117 -5.72659 
-23.162 -19.5169 -5.92249 -22.6342 -20.9828 -6.06999 -21.9044 -22.3974 -6.10439 
-21.0499 -23.6496 -6.03475 -20.2361 -24.4316 -5.78958 -19.6319 -24.6636 -5.30511 
-24.3865 -14.0517 -5.19443 -24.8973 -14.9383 -5.17845 -25.3647 -15.7755 -5.0373 
-25.8664 -16.439 -4.86525 -26.409 -16.8775 -4.66 -26.9113 -17.15 -4.31405 
-27.3808 -17.299 -3.88967 -27.8164 -17.2922 -3.46238 -28.0912 -17.0992 -2.96277 
-12.1221 -3.89538 3.68047 -13.3698 -4.50653 3.63012 -14.6991 -5.28774 3.49277 
-16.1462 -6.20434 3.15954 -17.6597 -7.2993 2.68815 -19.0569 -8.62234 2.19528 
-20.2149 -10.0577 1.66149 -21.1559 -11.4899 1.11619 -21.9192 -12.8951 0.659333 
-10.9521 -3.87894 3.45827 -10.9291 -4.37345 3.18383 -10.9951 -4.90757 2.88021 
-11.2043 -5.50517 2.53656 -11.5311 -6.12768 2.16627 -11.9493 -6.67672 1.77791 
-12.4492 -7.16534 1.34965 -13.0147 -7.64793 0.899095 -13.6208 -8.07342 0.4796 
-11.6605 -3.27259 3.9472 -12.4816 -3.1663 4.15555 -13.6065 -3.07709 4.21346 
-15.0485 -3.0641 4.14269 -16.5791 -3.23861 4.09856 -18.0175 -3.55073 4.08484 
-19.3077 -3.8437 3.97288 -20.3951 -4.09594 3.73396 -21.2827 -4.38138 3.41862 
-9.82724 -3.26797 3.54753 -8.62496 -3.11385 3.29168 -7.45188 -2.95439 2.91059 
-6.31574 -2.89115 2.53018 -5.17613 -2.99734 2.24039 -4.12428 -3.19044 1.93135 
-3.29124 -3.36399 1.51885 -2.69104 -3.50202 1.02327 -2.32241 -3.59785 0.456509 
-10.2683 -2.80113 3.82397 -9.59668 -2.01676 3.88447 -9.08794 -1.08675 3.89108 
-8.81036 -0.119018 3.83304 -8.7458 0.800595 3.70194 -8.8926 1.67155 3.53629 
-9.2642 2.43449 3.3539 -9.79185 2.97683 3.0976 -10.3461 3.29734 2.72692 
-22.0313 -14.0615 0.218992 -21.4766 -13.7489 0.164401 -20.8357 -13.2552 0.115708 
-20.1277 -12.6054 0.0931534 -19.3522 -11.8528 0.121967 -18.4654 -11.0179 0.164223 
-17.441 -10.143 0.215605 -16.3317 -9.35131 0.271323 -15.2407 -8.76332 0.245214 
-22.646 -13.4988 0.605237 -22.7906 -12.6835 0.933385 -22.9325 -11.7988 1.28531 
-23.0633 -10.8758 1.65253 -23.1653 -9.90469 2.01166 -23.1566 -8.86502 2.3617 
-23.0057 -7.78912 2.66371 -22.7746 -6.72099 2.8612 -22.4652 -5.68626 2.98394 
-22.7035 -15.503 -0.12272 -22.8043 -16.9135 -0.592232 -22.7522 -18.4331 -1.0421 
-22.471 -20.0064 -1.46687 -22.0061 -21.4918 -1.9596 -21.4538 -22.7712 -2.47505 
-20.7648 -23.7768 -2.9341 -20.0081 -24.4121 -3.45242 -19.4836 -24.6357 -4.08297 
-23.1084 -15.063 0.149657 -23.7281 -15.8753 0.0042239 -24.3879 -16.6077 -0.148122 
-25.1157 -17.1456 -0.326666 -25.8987 -17.4001 -0.573295 -26.6356 -17.4249 -0.887756 
-27.2207 -17.3464 -1.21122 -27.6553 -17.2241 -1.54912 -27.9679 -17.0377 -1.95267 
-14.9648 -7.69706 -3.25974 -14.7168 -7.82449 -3.03887 -14.4221 -7.95704 -2.79466 
-14.1123 -8.11694 -2.50301 -13.9221 -8.31677 -2.11816 -13.8452 -8.50712 -1.65404 
-13.8276 -8.57221 -1.17053 -13.9015 -8.51355 -0.702565 -14.0595 -8.44564 -0.269082 
-16.8464 -8.83019 -3.32386 -18.2648 -10.9192 -3.5512 -19.1072 -13.3785 -4.07475 
-19.2647 -15.5677 -4.57291 -19.1715 -17.4623 -4.87813 -19.2719 -19.3325 -5.06296 
-19.4662 -21.0693 -5.13137 -19.477 -22.508 -5.06118 -19.3504 -23.6633 -4.90421 
-13.3988 -7.00933 -3.58456 -11.5991 -6.74596 -3.59407 -10.0015 -6.29409 -3.29168 
-8.42886 -5.70636 -2.8465 -6.86102 -5.3862 -2.44177 -5.52052 -5.20402 -2.02461 
-4.3791 -4.87055 -1.57337 -3.35108 -4.48452 -1.12446 -2.59304 -4.10076 -0.646633 
-15.5838 -9.07245 -0.19576 -17.1249 -10.461 -0.657244 -18.5597 -12.7994 -1.31114 
-19.4035 -15.5191 -1.99715 -19.5285 -17.788 -2.52415 -19.3845 -19.5662 -2.93193 
-19.3461 -21.1779 -3.34261 -19.3315 -22.5799 -3.76997 -19.269 -23.6842 -4.21627 
-12.8953 -8.04893 0.12987 -11.494 -7.70628 0.171673 -9.98625 -7.32262 0.254148 
-8.37985 -7.09973 0.32664 -6.86157 -7.00671 0.334789 -5.55385 -6.68782 0.278115 
-4.37706 -6.06909 0.191593 -3.35004 -5.33006 0.0970035 -2.62085 -4.51473 -0.0120138 
-21.6153 -2.92808 -0.697958 -21.8253 -2.83527 -0.291508 -22.0288 -2.74778 0.183913 
-22.1585 -2.75847 0.756917 -22.2395 -2.93686 1.35367 -22.2978 -3.2488 1.85676 
-22.2855 -3.6236 2.26526 -22.2244 -3.9999 2.61489 -22.1565 -4.35796 2.88917 
-22.4586 -4.09832 -1.176 -23.5619 -5.22735 -1.35179 -24.6928 -6.33447 -1.63426 
-25.8367 -7.70721 -2.03558 -26.9153 -9.59698 -2.4223 -27.7028 -11.5735 -2.61503 
-28.0685 -13.1473 -2.61324 -28.1545 -14.4537 -2.54668 -28.1581 -15.6871 -2.47731 
-20.54 -1.9565 -0.719122 -19.5862 -0.947283 -0.342965 -18.5363 0.0267961 0.0499517 
-17.3684 0.985251 0.424534 -16.1936 1.85119 0.767068 -15.0968 2.58695 1.10953 
-14.0006 3.14266 1.46582 -12.8785 3.4163 1.78801 -11.8139 3.47257 2.0516 
-23.1274 -5.67109 2.69471 -24.2695 -6.69592 2.30414 -25.2896 -7.82056 1.85834 
-26.1566 -9.09559 1.30487 -26.965 -10.5306 0.659558 -27.6143 -12.0019 0.0103986 
-27.9302 -13.3263 -0.595253 -28.0122 -14.518 -1.20459 -28.0697 -15.6811 -1.82588 
-21.0681 -3.49503 3.38635 -19.9993 -2.1647 3.67172 -18.8326 -0.872994 3.8405 
-17.5271 0.306762 3.90415 -16.1573 1.42085 3.93035 -14.9068 2.34151 3.82765 
-13.7975 2.86357 3.4997 -12.7252 3.09615 3.06798 -11.7097 3.2801 2.66472 
-19.7581 -25.2152 -4.80011 -20.7349 -25.3115 -4.77774 -22.2099 -24.6254 -4.5133 
-23.788 -23.6276 -4.11092 -25.0292 -22.6846 -3.76433 -25.9569 -21.5225 -3.45652 
-26.8609 -20.1682 -3.12585 -27.6446 -18.9816 -2.84358 -28.044 -17.9066 -2.62187 
-2.05358 -2.60295 0.0994131 -2.1394 -1.49735 0.347106 -2.54753 -0.51484 0.563675 
-3.3437 0.417055 0.742695 -4.46235 1.44797 0.951125 -5.76755 2.41916 1.26676 
-7.14849 3.1236 1.64809 -8.49037 3.49243 1.96305 -9.72013 3.5548 2.15804 
-12.7419 -1.40669 -3.11317 -12.744 -2.06726 -3.33868 -14.037 -2.15685 -3.33231 
-12.7848 -2.76573 -3.54558 -14.1937 -2.89553 -3.55965 -15.5229 -3.15629 -3.47506 
-12.8584 -3.45446 -3.7512 -14.4752 -3.61021 -3.7848 -15.9257 -4.0201 -3.64495 
-17.2379 -4.57518 -3.47059 -13.2084 -4.34605 -3.85297 -14.8981 -4.47027 -3.94263 
-16.5264 -4.91823 -3.86518 -17.8554 -5.63441 -3.63127 -19.047 -6.35583 -3.54244 
-14.0538 -5.40865 -3.81405 -15.5953 -5.64806 -3.89863 -17.194 -6.1618 -3.98776 
-18.5696 -6.87931 -3.89703 -19.6675 -7.62485 -3.82064 -20.6622 -8.24416 -3.90124 
-15.0854 -6.36771 -3.7098 -16.4942 -6.8509 -3.73492 -17.8564 -7.63714 -3.92438 
-19.1544 -8.46718 -4.0766 -20.2362 -9.13433 -4.15912 -21.1147 -9.63656 -4.29848 
-21.8941 -10.0358 -4.40683 -15.9176 -7.22332 -3.58919 -17.2571 -7.93314 -3.63573 
-18.4124 -8.96663 -3.87905 -19.5181 -10.0079 -4.1868 -20.5651 -10.7457 -4.42628 
-21.4242 -11.1565 -4.65026 -22.1246 -11.4296 -4.82338 -22.7485 -11.6623 -4.85314 
-10.4004 -0.562266 -2.90029 -9.02454 -0.48736 -2.80265 -10.1616 -1.23036 -3.04023 
-7.51604 -0.659785 -2.62047 -8.66551 -1.26863 -2.92222 -10.011 -2.01246 -3.19461 
-6.0251 -1.05949 -2.40407 -7.12838 -1.54965 -2.78376 -8.52292 -2.12129 -3.12836 
-9.94005 -2.76607 -3.4286 -4.73263 -1.56042 -2.19191 -5.75567 -2.02825 -2.59734 
-7.0997 -2.47327 -2.9892 -8.60565 -2.94978 -3.32773 -10.0863 -3.61585 -3.60939 
-3.74053 -2.11861 -1.94014 -4.7017 -2.59296 -2.3227 -5.9197 -3.02911 -2.70325 
-7.41855 -3.38065 -3.04847 -8.99042 -3.90683 -3.39183 -10.6744 -4.6744 -3.71154 
-3.07035 -2.76385 -1.58263 -3.99169 -3.2052 -1.96618 -5.10555 -3.65576 -2.33824 
-6.48901 -3.9824 -2.68884 -8.08549 -4.34934 -3.03794 -9.73076 -5.01936 -3.46974 
-11.5718 -5.70805 -3.79261 -2.69765 -3.4566 -1.12723 -3.55997 -3.85512 -1.55743 
-4.62879 -4.27819 -1.9606 -5.87419 -4.61316 -2.36349 -7.38669 -4.86034 -2.72866 
-9.00799 -5.36738 -3.14963 -10.6492 -6.03251 -3.59311 -12.4961 -6.47745 -3.76971 
-3.1739 -4.96959 -0.538569 -4.09037 -5.81404 -0.463116 -4.1214 -5.37617 -1.06638 
-5.21499 -6.58814 -0.400169 -5.13654 -6.23469 -1.04853 -5.25245 -5.7423 -1.58287 
-6.44947 -7.0706 -0.320094 -6.28672 -6.85372 -1.02818 -6.29787 -6.43936 -1.59768 
-6.48617 -5.92407 -2.06537 -7.89675 -7.22715 -0.227637 -7.64036 -7.16252 -0.960105 
-7.56214 -6.922 -1.59858 -7.66861 -6.55985 -2.08416 -8.00143 -6.12384 -2.51283 
[...]
POINT_DATA 1002
FIELD FieldData 4
_paraPhi 1 1002 double
6.2831853072 3.1415926536 6.2831853072 3.1415926536 4.7123889804 4.7123889804 1.5707963268 1.5707963268 3.6951670125 
5.7296109483 2.5880182947 0.5535743589 6.2831853072 6.2831853072 6.2831853072 6.2831853072 3.1415926536 3.1415926536 
3.1415926536 3.1415926536 3.1415926536 6.1053039672 5.898798347 5.6768734901 5.4599499503 5.2659633393 5.1032165617 
4.9713148346 4.8656852733 4.7809517865 0.17788134 0.38438696014 0.60631181711 0.82323535693 1.0172219679 1.1799687454 
1.3118704726 1.4175000338 1.5022335207 6.1892828907 6.1070320098 6.035312792 5.9728339911 5.9183214791 5.8706119594 
5.8286879411 5.7916808611 5.7588591896 0.093902416448 0.17615329733 0.2478725152 0.31035131605 0.36486382811 0.41257334776 
0.45449736604 0.4915044461 0.52432611754 3.3194739936 3.5259796137 3.7479044707 3.9648280105 4.1588146215 4.321561399 
4.4534631262 4.5590926874 4.6438261743 2.9637113136 2.7572056934 2.5352808365 2.3183572967 2.1243706857 1.9616239082 
1.829722181 1.7240926197 1.6393591329 3.23549507 3.3177459509 3.3894651688 3.4519439696 3.5064564817 3.5541660013 
3.5960900196 3.6330970997 3.6659187711 3.0476902371 2.9654393563 2.8937201384 2.8312413375 2.7767288255 2.7290193058 
2.6870952876 2.6500882075 2.617266536 6.2831853072 6.2831853072 6.2831853072 6.2831853072 3.1415926536 3.1415926536 
3.1415926536 3.1415926536 3.1415926536 6.1053039672 5.898798347 5.6768734901 5.4599499503 5.2659633393 5.1032165617 
4.9713148346 4.8656852733 4.7809517865 0.17788134 0.38438696014 0.60631181711 0.82323535693 1.0172219679 1.1799687454 
1.3118704726 1.4175000338 1.5022335207 6.1892828907 6.1070320098 6.035312792 5.9728339911 5.9183214791 5.8706119594 
5.8286879411 5.7916808611 5.7588591896 0.093902416448 0.17615329733 0.2478725152 0.31035131605 0.36486382811 0.41257334776 
0.45449736604 0.4915044461 0.52432611754 3.3194739936 3.5259796137 3.7479044707 3.9648280105 4.1588146215 4.321561399 
4.4534631262 4.5590926874 4.6438261743 2.9637113136 2.7572056934 2.5352808365 2.3183572967 2.1243706857 1.9616239082 
1.829722181 1.7240926197 1.6393591329 3.23549507 3.3177459509 3.3894651688 3.4519439696 3.5064564817 3.5541660013 
3.5960900196 3.6330970997 3.6659187711 3.0476902371 2.9654393563 2.8937201384 2.8312413375 2.7767288255 2.7290193058 
2.6870952876 2.6500882075 2.617266536 4.7123889804 4.7123889804 4.7123889804 4.7123889804 4.7123889804 4.7123889804 
4.7123889804 4.7123889804 4.7123889804 4.6087898617 4.4991390697 4.3857031936 4.2712800401 4.1588146215 4.0509635631 
3.94975894 3.8564636551 3.7716124825 4.8159880991 4.9256388911 5.0390747672 5.1534979207 5.2659633393 5.3738143976 
5.4750190208 5.5683143056 5.6531654782 4.6087898617 4.4991390697 4.3857031936 4.2712800401 4.1588146215 4.0509635631 
3.94975894 3.8564636551 3.7716124825 4.8159880991 4.9256388911 5.0390747672 5.1534979207 5.2659633393 5.3738143976 
5.4750190208 5.5683143056 5.6531654782 1.5707963268 1.5707963268 1.5707963268 1.5707963268 1.5707963268 1.5707963268 
1.5707963268 1.5707963268 1.5707963268 1.6743954455 1.7840462375 1.8974821136 2.0119052671 2.1243706857 2.232221744 
2.3334263672 2.426721652 2.5115728246 1.4671972081 1.3575464161 1.24411054 1.1296873865 1.0172219679 0.90937090954 
0.80816628637 0.71487100155 0.63001982895 1.6743954455 1.7840462375 1.8974821136 2.0119052671 2.1243706857 2.232221744 
2.3334263672 2.426721652 2.5115728246 1.4671972081 1.3575464161 1.24411054 1.1296873865 1.0172219679 0.90937090954 
0.80816628637 0.71487100155 0.63001982895 3.6007720849 3.4966939854 3.3839471039 3.2645756454 3.1415926536 3.0186096618 
2.8992382033 2.7864913217 2.6824132222 5.8240058758 5.9280839753 6.0408308569 6.1602023154 6.2831853072 0.12298299178 
0.2423544503 0.35510133185 0.45917943135 6.0560271438 5.7885595667 5.9702140275 5.5125918794 5.6029703303 5.7885595667 
5.2659633393 5.2659633393 5.2659633393 5.2659633393 5.0674903122 5.0120975802 4.9155579264 4.7123889804 4.1588146215 
4.9155579264 4.8353719722 4.7123889804 4.5092200343 4.1588146215 3.6362183941 4.8004512023 4.7123889804 4.5894059886 
4.4126803806 4.1588146215 3.8218076305 3.4545639333 4.7123889804 4.6243267584 4.5092200343 4.3572876485 4.1588146215 
3.9121860814 3.6362183941 3.368750817 6.0174235957 5.9434319871 5.8263323547 5.8809213739 5.7674481418 5.6279784266 
5.8278025282 5.718968232 5.5891129425 5.4372443565 5.7823484065 5.678536687 5.5575666702 5.4192596322 5.2659633393 
5.743164462 5.6444075337 5.5314983644 5.4046708639 5.2659633393 5.1195510325 5.7091357773 5.6152775188 5.5096229709 
5.3926039573 5.2659633393 5.1329233157 4.9978930058 5.6793730533 5.5901633916 5.4910209005 5.3824597928 5.2659633393 
5.1440684722 5.0201624502 4.8979782167 5.5683143056 5.4750190208 5.4750190208 5.3738143976 5.3738143976 5.3738143976 
5.2659633393 5.2659633393 5.2659633393 5.2659633393 5.1534979207 5.1534979207 5.1534979207 5.1534979207 5.1534979207 
5.0390747672 5.0390747672 5.0390747672 5.0390747672 5.0390747672 5.0390747672 4.9256388911 4.9256388911 4.9256388911 
4.9256388911 4.9256388911 4.9256388911 4.9256388911 4.8159880991 4.8159880991 4.8159880991 4.8159880991 4.8159880991 
4.8159880991 4.8159880991 4.8159880991 4.6087898617 4.6087898617 4.4991390697 4.6087898617 4.4991390697 4.3857031936 
4.6087898617 4.4991390697 4.3857031936 4.2712800401 4.6087898617 4.4991390697 4.3857031936 4.2712800401 4.1588146215 
4.6087898617 4.4991390697 4.3857031936 4.2712800401 4.1588146215 4.0509635631 4.6087898617 4.4991390697 4.3857031936 
4.2712800401 4.1588146215 4.0509635631 3.94975894 4.6087898617 4.4991390697 4.3857031936 4.2712800401 4.1588146215 
4.0509635631 3.94975894 3.8564636551 4.526799744 4.4046155105 4.426884955 4.2807094886 4.2918546451 4.3052269283 
4.1588146215 4.1588146215 4.1588146215 4.1588146215 4.042318168 4.0321740035 4.0201070968 4.0055183285 3.9875336042 
3.9337570603 3.9151549899 3.8932795963 3.8672112905 3.8356650183 3.7967995342 3.8346145692 3.809500442 3.7803704271 
3.7462412737 3.7058097288 3.657329819 3.5984456061 3.7454049075 3.7156421835 3.6816134988 3.6424295543 3.5969754326 
3.5438565869 3.4813459737 3.4073543651 3.5642842451 3.4524645613 3.5233842518 3.3320300872 3.403123212 3.4773852225 
3.20576226 3.2746326772 3.348015857 3.4255060145 3.0774230472 3.1415926536 3.2112816139 3.2864685043 3.3668817272 
2.95115522 3.00855263 3.0719036933 3.1415926536 3.2178377658 3.3005964304 2.8307207459 2.8800620952 2.9351694502 
2.9967168029 3.0653475414 3.1415926536 3.225752376 2.718901062 2.7598010554 2.8058000847 2.8576792927 2.91630358 
2.9825888767 3.0574329311 3.1415926536 3.5642842451 3.5233842518 3.4524645613 3.4773852225 3.403123212 3.3320300872 
3.4255060145 3.348015857 3.2746326772 3.20576226 3.3668817272 3.2864685043 3.2112816139 3.1415926536 3.0774230472 
3.3005964304 3.2178377658 3.1415926536 3.0719036933 3.00855263 2.95115522 3.225752376 3.1415926536 3.0653475414 
2.9967168029 2.9351694502 2.8800620952 2.8307207459 3.1415926536 3.0574329311 2.9825888767 2.91630358 2.8576792927 
2.8058000847 2.7598010554 2.718901062 4.526799744 4.426884955 4.4046155105 4.3052269283 4.2918546451 4.2807094886 
4.1588146215 4.1588146215 4.1588146215 4.1588146215 3.9875336042 4.0055183285 4.0201070968 4.0321740035 4.042318168 
3.7967995342 3.8356650183 3.8672112905 3.8932795963 3.9151549899 3.9337570603 3.5984456061 3.657329819 3.7058097288 
3.7462412737 3.7803704271 3.809500442 3.8346145692 3.4073543651 3.4813459737 3.5438565869 3.5969754326 3.6424295543 
3.6816134988 3.7156421835 3.7454049075 4.7123889804 4.8004512023 4.6243267584 4.9155579264 4.7123889804 4.5092200343 
5.0674903122 4.8353719722 4.5894059886 4.3572876485 5.2659633393 5.0120975802 4.7123889804 4.4126803806 4.1588146215 
5.5125918794 5.2659633393 4.9155579264 4.5092200343 4.1588146215 3.9121860814 5.7885595667 5.6029703303 5.2659633393 
4.7123889804 4.1588146215 3.8218076305 3.6362183941 6.0560271438 5.9702140275 5.7885595667 5.2659633393 4.1588146215 
3.6362183941 3.4545639333 3.368750817 0.22715816343 0.49462574053 0.3129712797 0.77059342779 0.68021497688 0.49462574053 
1.0172219679 1.0172219679 1.0172219679 1.0172219679 1.2156949949 1.271087727 1.3676273807 1.5707963268 2.1243706857 
1.3676273807 1.447813335 1.5707963268 1.7739652728 2.1243706857 2.6469669131 1.4827341049 1.5707963268 1.6937793186 
1.8705049266 2.1243706857 2.4613776767 2.8286213739 1.5707963268 1.6588585487 1.7739652728 1.9258976586 2.1243706857 
2.3709992258 2.6469669131 2.9144344902 1.7563855631 1.8785697967 1.8563003522 2.0024758186 1.9913306621 1.9779583789 
2.1243706857 2.1243706857 2.1243706857 2.1243706857 2.2408671392 2.2510113037 2.2630782103 2.2776669786 2.295651703 
2.3494282469 2.3680303173 2.3899057108 2.4159740166 2.4475202889 2.486385773 2.448570738 2.4736848652 2.5028148801 
2.5369440334 2.5773755784 2.6258554882 2.6847397011 2.5377803997 2.5675431237 2.6015718084 2.6407557529 2.6862098746 
2.7393287203 2.8018393335 2.8758309421 1.6743954455 1.6743954455 1.7840462375 1.6743954455 1.7840462375 1.8974821136 
1.6743954455 1.7840462375 1.8974821136 2.0119052671 1.6743954455 1.7840462375 1.8974821136 2.0119052671 2.1243706857 
1.6743954455 1.7840462375 1.8974821136 2.0119052671 2.1243706857 2.232221744 1.6743954455 1.7840462375 1.8974821136 
2.0119052671 2.1243706857 2.232221744 2.3334263672 1.6743954455 1.7840462375 1.8974821136 2.0119052671 2.1243706857 
2.232221744 2.3334263672 2.426721652 1.4671972081 1.3575464161 1.4671972081 1.24411054 1.3575464161 1.4671972081 
1.1296873865 1.24411054 1.3575464161 1.4671972081 1.0172219679 1.1296873865 1.24411054 1.3575464161 1.4671972081 
0.90937090954 1.0172219679 1.1296873865 1.24411054 1.3575464161 1.4671972081 0.80816628637 0.90937090954 1.0172219679 
1.1296873865 1.24411054 1.3575464161 1.4671972081 0.71487100155 0.80816628637 0.90937090954 1.0172219679 1.1296873865 
1.24411054 1.3575464161 1.4671972081 0.60381225391 0.57404952988 0.69302191562 0.54002084522 0.66790778838 0.79216440667 
0.50083690068 0.63877777351 0.77356233629 0.90072551443 0.45538277901 0.60464862014 0.75168694275 0.89058134991 1.0172219679 
0.40226393329 0.56421707518 0.72561863695 0.87851444325 1.0172219679 1.139116835 0.33975332011 0.51573716537 0.69407236469 
0.86392567495 1.0172219679 1.1502619915 1.2630228569 0.26576171152 0.45685295248 0.6552068806 0.84594095064 1.0172219679 
1.1636342747 1.2852923014 1.3852070904 0.22715816343 0.3129712797 0.49462574053 0.49462574053 0.68021497688 0.77059342779 
1.0172219679 1.0172219679 1.0172219679 1.0172219679 2.1243706857 1.5707963268 1.3676273807 1.271087727 1.2156949949 
2.6469669131 2.1243706857 1.7739652728 1.5707963268 1.447813335 1.3676273807 2.8286213739 2.4613776767 2.1243706857 
1.8705049266 1.6937793186 1.5707963268 1.4827341049 2.9144344902 2.6469669131 2.3709992258 2.1243706857 1.9258976586 
1.7739652728 1.6588585487 1.5707963268 1.7563855631 1.8563003522 1.8785697967 1.9779583789 1.9913306621 2.0024758186 
2.1243706857 2.1243706857 2.1243706857 2.1243706857 2.295651703 2.2776669786 2.2630782103 2.2510113037 2.2408671392 
2.486385773 2.4475202889 2.4159740166 2.3899057108 2.3680303173 2.3494282469 2.6847397011 2.6258554882 2.5773755784 
2.5369440334 2.5028148801 2.4736848652 2.448570738 2.8758309421 2.8018393335 2.7393287203 2.6862098746 2.6407557529 
2.6015718084 2.5675431237 2.5377803997 5.8604937156 5.901393709 5.9723133995 5.9473927383 6.0216547488 6.0927478736 
5.9992719463 6.0767621038 6.1501452836 6.2190157008 6.0578962336 6.1383094565 6.2134963469 0 0.064169606361 
6.1241815303 6.206940195 6.2831853072 0.069688960264 0.13304002361 0.19043743361 6.1990255847 0 0.07624511221 
0.14487585072 0.20642320337 0.26153055843 0.3108719077 0 0.084159722458 0.15900377685 0.22528907359 0.28391336087 
0.3357925689 0.38179159818 0.42269159155 5.8604937156 5.9723133995 5.901393709 6.0927478736 6.0216547488 5.9473927383 
6.2190157008 6.1501452836 6.0767621038 5.9992719463 0.064169606361 0 6.2134963469 6.1383094565 6.0578962336 
0.19043743361 0.13304002361 0.069688960264 6.2831853072 6.206940195 6.1241815303 0.3108719077 0.26153055843 0.20642320337 
0.14487585072 0.07624511221 6.2831853072 6.1990255847 0.42269159155 0.38179159818 0.3357925689 0.28391336087 0.22528907359 
0.15900377685 0.084159722458 0 5.6793730533 5.7091357773 5.5901633916 5.743164462 5.6152775188 5.4910209005 
5.7823484065 5.6444075337 5.5096229709 5.3824597928 5.8278025282 5.678536687 5.5314983644 5.3926039573 5.2659633393 
5.8809213739 5.718968232 5.5575666702 5.4046708639 5.2659633393 5.1440684722 5.9434319871 5.7674481418 5.5891129425 
5.4192596322 5.2659633393 5.1329233157 5.0201624502 6.0174235957 5.8263323547 5.6279784266 5.4372443565 5.2659633393 
5.1195510325 4.9978930058 4.8979782167 1.3852070904 1.2852923014 1.2630228569 1.1636342747 1.1502619915 1.139116835 
1.0172219679 1.0172219679 1.0172219679 1.0172219679 0.84594095064 0.86392567495 0.87851444325 0.89058134991 0.90072551443 
0.6552068806 0.69407236469 0.72561863695 0.75168694275 0.77356233629 0.79216440667 0.45685295248 0.51573716537 0.56421707518 
0.60464862014 0.63877777351 0.66790778838 0.69302191562 0.26576171152 0.33975332011 0.40226393329 0.45538277901 0.50083690068 
0.54002084522 0.57404952988 0.60381225391 
_paraPhiHalf 1 1002 double
0 3.1415926536 0 3.1415926536 1.5707963268 1.5707963268 1.5707963268 1.5707963268 2.5880182947 
0.5535743589 2.5880182947 0.5535743589 0 0 0 0 3.1415926536 3.1415926536 
3.1415926536 3.1415926536 3.1415926536 0.17788134 0.38438696014 0.60631181711 0.82323535693 1.0172219679 1.1799687454 
1.3118704726 1.4175000338 1.5022335207 0.17788134 0.38438696014 0.60631181711 0.82323535693 1.0172219679 1.1799687454 
1.3118704726 1.4175000338 1.5022335207 0.093902416448 0.17615329733 0.2478725152 0.31035131605 0.36486382811 0.41257334776 
0.45449736604 0.4915044461 0.52432611754 0.093902416448 0.17615329733 0.2478725152 0.31035131605 0.36486382811 0.41257334776 
0.45449736604 0.4915044461 0.52432611754 2.9637113136 2.7572056934 2.5352808365 2.3183572967 2.1243706857 1.9616239082 
1.829722181 1.7240926197 1.6393591329 2.9637113136 2.7572056934 2.5352808365 2.3183572967 2.1243706857 1.9616239082 
1.829722181 1.7240926197 1.6393591329 3.0476902371 2.9654393563 2.8937201384 2.8312413375 2.7767288255 2.7290193058 
2.6870952876 2.6500882075 2.617266536 3.0476902371 2.9654393563 2.8937201384 2.8312413375 2.7767288255 2.7290193058 
2.6870952876 2.6500882075 2.617266536 0 0 0 0 3.1415926536 3.1415926536 
3.1415926536 3.1415926536 3.1415926536 0.17788134 0.38438696014 0.60631181711 0.82323535693 1.0172219679 1.1799687454 
1.3118704726 1.4175000338 1.5022335207 0.17788134 0.38438696014 0.60631181711 0.82323535693 1.0172219679 1.1799687454 
1.3118704726 1.4175000338 1.5022335207 0.093902416448 0.17615329733 0.2478725152 0.31035131605 0.36486382811 0.41257334776 
0.45449736604 0.4915044461 0.52432611754 0.093902416448 0.17615329733 0.2478725152 0.31035131605 0.36486382811 0.41257334776 
0.45449736604 0.4915044461 0.52432611754 2.9637113136 2.7572056934 2.5352808365 2.3183572967 2.1243706857 1.9616239082 
1.829722181 1.7240926197 1.6393591329 2.9637113136 2.7572056934 2.5352808365 2.3183572967 2.1243706857 1.9616239082 
1.829722181 1.7240926197 1.6393591329 3.0476902371 2.9654393563 2.8937201384 2.8312413375 2.7767288255 2.7290193058 
2.6870952876 2.6500882075 2.617266536 3.0476902371 2.9654393563 2.8937201384 2.8312413375 2.7767288255 2.7290193058 
2.6870952876 2.6500882075 2.617266536 1.5707963268 1.5707963268 1.5707963268 1.5707963268 1.5707963268 1.5707963268 
1.5707963268 1.5707963268 1.5707963268 1.6743954455 1.7840462375 1.8974821136 2.0119052671 2.1243706857 2.232221744 
2.3334263672 2.426721652 2.5115728246 1.4671972081 1.3575464161 1.24411054 1.1296873865 1.0172219679 0.90937090954 
0.80816628637 0.71487100155 0.63001982895 1.6743954455 1.7840462375 1.8974821136 2.0119052671 2.1243706857 2.232221744 
2.3334263672 2.426721652 2.5115728246 1.4671972081 1.3575464161 1.24411054 1.1296873865 1.0172219679 0.90937090954 
0.80816628637 0.71487100155 0.63001982895 1.5707963268 1.5707963268 1.5707963268 1.5707963268 1.5707963268 1.5707963268 
1.5707963268 1.5707963268 1.5707963268 1.6743954455 1.7840462375 1.8974821136 2.0119052671 2.1243706857 2.232221744 
2.3334263672 2.426721652 2.5115728246 1.4671972081 1.3575464161 1.24411054 1.1296873865 1.0172219679 0.90937090954 
0.80816628637 0.71487100155 0.63001982895 1.6743954455 1.7840462375 1.8974821136 2.0119052671 2.1243706857 2.232221744 
2.3334263672 2.426721652 2.5115728246 1.4671972081 1.3575464161 1.24411054 1.1296873865 1.0172219679 0.90937090954 
0.80816628637 0.71487100155 0.63001982895 2.6824132222 2.7864913217 2.8992382033 3.0186096618 3.1415926536 3.0186096618 
2.8992382033 2.7864913217 2.6824132222 0.45917943135 0.35510133185 0.2423544503 0.12298299178 0 0.12298299178 
0.2423544503 0.35510133185 0.45917943135 0.22715816343 0.49462574053 0.3129712797 0.77059342779 0.68021497688 0.49462574053 
1.0172219679 1.0172219679 1.0172219679 1.0172219679 1.2156949949 1.271087727 1.3676273807 1.5707963268 2.1243706857 
1.3676273807 1.447813335 1.5707963268 1.7739652728 2.1243706857 2.6469669131 1.4827341049 1.5707963268 1.6937793186 
1.8705049266 2.1243706857 2.4613776767 2.8286213739 1.5707963268 1.6588585487 1.7739652728 1.9258976586 2.1243706857 
2.3709992258 2.6469669131 2.9144344902 0.26576171152 0.33975332011 0.45685295248 0.40226393329 0.51573716537 0.6552068806 
0.45538277901 0.56421707518 0.69407236469 0.84594095064 0.50083690068 0.60464862014 0.72561863695 0.86392567495 1.0172219679 
0.54002084522 0.63877777351 0.75168694275 0.87851444325 1.0172219679 1.1636342747 0.57404952988 0.66790778838 0.77356233629 
0.89058134991 1.0172219679 1.1502619915 1.2852923014 0.60381225391 0.69302191562 0.79216440667 0.90072551443 1.0172219679 
1.139116835 1.2630228569 1.3852070904 0.71487100155 0.80816628637 0.80816628637 0.90937090954 0.90937090954 0.90937090954 
1.0172219679 1.0172219679 1.0172219679 1.0172219679 1.1296873865 1.1296873865 1.1296873865 1.1296873865 1.1296873865 
1.24411054 1.24411054 1.24411054 1.24411054 1.24411054 1.24411054 1.3575464161 1.3575464161 1.3575464161 
1.3575464161 1.3575464161 1.3575464161 1.3575464161 1.4671972081 1.4671972081 1.4671972081 1.4671972081 1.4671972081 
1.4671972081 1.4671972081 1.4671972081 1.6743954455 1.6743954455 1.7840462375 1.6743954455 1.7840462375 1.8974821136 
1.6743954455 1.7840462375 1.8974821136 2.0119052671 1.6743954455 1.7840462375 1.8974821136 2.0119052671 2.1243706857 
1.6743954455 1.7840462375 1.8974821136 2.0119052671 2.1243706857 2.232221744 1.6743954455 1.7840462375 1.8974821136 
2.0119052671 2.1243706857 2.232221744 2.3334263672 1.6743954455 1.7840462375 1.8974821136 2.0119052671 2.1243706857 
2.232221744 2.3334263672 2.426721652 1.7563855631 1.8785697967 1.8563003522 2.0024758186 1.9913306621 1.9779583789 
2.1243706857 2.1243706857 2.1243706857 2.1243706857 2.2408671392 2.2510113037 2.2630782103 2.2776669786 2.295651703 
2.3494282469 2.3680303173 2.3899057108 2.4159740166 2.4475202889 2.486385773 2.448570738 2.4736848652 2.5028148801 
2.5369440334 2.5773755784 2.6258554882 2.6847397011 2.5377803997 2.5675431237 2.6015718084 2.6407557529 2.6862098746 
2.7393287203 2.8018393335 2.8758309421 2.718901062 2.8307207459 2.7598010554 2.95115522 2.8800620952 2.8058000847 
3.0774230472 3.00855263 2.9351694502 2.8576792927 3.0774230472 3.1415926536 3.0719036933 2.9967168029 2.91630358 
2.95115522 3.00855263 3.0719036933 3.1415926536 3.0653475414 2.9825888767 2.8307207459 2.8800620952 2.9351694502 
2.9967168029 3.0653475414 3.1415926536 3.0574329311 2.718901062 2.7598010554 2.8058000847 2.8576792927 2.91630358 
2.9825888767 3.0574329311 3.1415926536 2.718901062 2.7598010554 2.8307207459 2.8058000847 2.8800620952 2.95115522 
2.8576792927 2.9351694502 3.00855263 3.0774230472 2.91630358 2.9967168029 3.0719036933 3.1415926536 3.0774230472 
2.9825888767 3.0653475414 3.1415926536 3.0719036933 3.00855263 2.95115522 3.0574329311 3.1415926536 3.0653475414 