# vtk DataFile Version 5.1
vtk output
ASCII
DATASET POLYDATA
POINTS 100 float
-4.18414 3.87269 1.4589 -4.18911 3.87247 1.4563 -4.20444 3.86874 1.45229 
-4.23078 3.85923 1.44727 -4.26905 3.84056 1.44181 -4.3202 3.80882 1.43653 
-4.38497 3.76015 1.43208 -4.46372 3.69142 1.42893 -4.5563 3.60061 1.42739 
-4.66205 3.48717 1.42755 -4.7799 3.35202 1.42928 -4.90857 3.19738 1.43226 
-5.04681 3.02639 1.4361 -5.19362 2.84263 1.44038 -5.34844 2.64959 1.44474 
-5.51124 2.45024 1.44892 -5.68247 2.24671 1.45278 -5.86295 2.04017 1.45631 
-6.05364 1.83091 1.45954 -6.25538 1.61847 1.46251 -6.46867 1.40204 1.46522 
-6.69352 1.18073 1.46756 -6.92935 0.953859 1.46927 -7.17507 0.72115 1.47 
-7.42922 0.482761 1.4693 -7.69018 0.239192 1.46668 -7.95645 -0.00891092 1.4617 
-8.22678 -0.261002 1.45403 -8.50038 -0.516871 1.44346 -8.77691 -0.77681 1.42999 
-9.05643 -1.04166 1.41373 -9.33925 -1.31271 1.39494 -9.62572 -1.59151 1.37394 
-9.91608 -1.87958 1.35105 -10.2103 -2.17806 1.32652 -10.5081 -2.48751 1.30053 
-10.8088 -2.80768 1.27314 -11.1118 -3.13754 1.2443 -11.4166 -3.47543 1.21389 
-11.7228 -3.8193 1.18174 -12.0308 -4.16716 1.14765 -12.3412 -4.51745 1.11142 
-12.6553 -4.8694 1.07283 -12.9747 -5.22329 1.0316 -13.3007 -5.5805 0.987392 
-13.6346 -5.94341 0.939723 -13.9768 -6.31505 0.887944 -14.3267 -6.69872 0.831226 
-14.6825 -7.09748 0.76858 -15.0415 -7.51364 0.698918 -15.3997 -7.94841 0.621144 
-15.7527 -8.40167 0.534276 -16.0957 -8.87193 0.437577 -16.4241 -9.35654 0.330667 
-16.7342 -9.85196 0.213613 -17.0228 -10.3543 0.0869731 -17.2881 -10.8597 -0.0482157 
-17.5292 -11.365 -0.190505 -17.7462 -11.8677 -0.338146 -17.9402 -12.3664 -0.489231 
-18.1123 -12.861 -0.641847 -18.2643 -13.3521 -0.79422 -18.3976 -13.8409 -0.944824 
-18.5134 -14.3291 -1.09246 -18.6128 -14.8183 -1.23627 -18.6966 -15.3095 -1.37572 
-18.7655 -15.8034 -1.51057 -18.8202 -16.2998 -1.64073 -18.8618 -16.7979 -1.76626 
-18.8912 -17.2964 -1.88719 -18.9099 -17.7936 -2.00353 -18.9195 -18.2874 -2.11522 
-18.9217 -18.7761 -2.22207 -18.9182 -19.2576 -2.32383 -18.9106 -19.7304 -2.42016 
-18.9004 -20.1928 -2.51071 -18.8888 -20.6432 -2.5951 -18.8767 -21.0803 -2.67302 
-18.8648 -21.5023 -2.74418 -18.854 -21.9075 -2.80841 -18.8449 -22.2941 -2.86559 
-18.8383 -22.6602 -2.91574 -18.8349 -23.0043 -2.95897 -18.8355 -23.3248 -2.9955 
-18.8409 -23.6209 -3.02571 -18.8516 -23.8923 -3.05007 -18.8677 -24.1393 -3.06916 
-18.8893 -24.3627 -3.08369 -18.9156 -24.564 -3.09438 -18.9458 -24.7447 -3.10199 
-18.9786 -24.9067 -3.10724 -19.0126 -25.0514 -3.11077 -19.0461 -25.1798 -3.11313 
-19.0778 -25.2927 -3.11468 -19.1063 -25.3901 -3.11567 -19.1307 -25.4715 -3.1162 
-19.1502 -25.5362 -3.11629 -19.1643 -25.5833 -3.11587 -19.1727 -25.6118 -3.11487 
-19.1753 -25.6212 -3.11327 
LINES 2 100
OFFSETS vtktypeint64
0 100 
CONNECTIVITY vtktypeint64
0 1 2 3 4 5 6 7 8 
9 10 11 12 13 14 15 16 17 
18 19 20 21 22 23 24 25 26 
27 28 29 30 31 32 33 34 35 
36 37 38 39 40 41 42 43 44 
45 46 47 48 49 50 51 52 53 
54 55 56 57 58 59 60 61 62 
63 64 65 66 67 68 69 70 71 
72 73 74 75 76 77 78 79 80 
81 82 83 84 85 86 87 88 89 
90 91 92 93 94 95 96 97 98 
99 
POINT_DATA 100
FIELD FieldData 3
_theta 1 100 double
0 0.031733259127 0.063466518254 0.095199777382 0.12693303651 0.15866629564 0.19039955476 0.22213281389 0.25386607302 
0.28559933214 0.31733259127 0.3490658504 0.38079910953 0.41253236865 0.44426562778 0.47599888691 0.50773214603 0.53946540516 
0.57119866429 0.60293192342 0.63466518254 0.66639844167 0.6981317008 0.72986495992 0.76159821905 0.79333147818 0.82506473731 
0.85679799643 0.88853125556 0.92026451469 0.95199777382 0.98373103294 1.0154642921 1.0471975512 1.0789308103 1.1106640695 
1.1423973286 1.1741305877 1.2058638468 1.237597106 1.2693303651 1.3010636242 1.3327968833 1.3645301425 1.3962634016 
1.4279966607 1.4597299198 1.491463179 1.5231964381 1.5549296972 1.5866629564 1.6183962155 1.6501294746 1.6818627337 
1.7135959929 1.745329252 1.7770625111 1.8087957702 1.8405290294 1.8722622885 1.9039955476 1.9357288068 1.9674620659 
1.999195325 2.0309285841 2.0626618433 2.0943951024 2.1261283615 2.1578616206 2.1895948798 2.2213281389 2.253061398 
2.2847946572 2.3165279163 2.3482611754 2.3799944345 2.4117276937 2.4434609528 2.4751942119 2.506927471 2.5386607302 
2.5703939893 2.6021272484 2.6338605076 2.6655937667 2.6973270258 2.7290602849 2.7607935441 2.7925268032 2.8242600623 
2.8559933214 2.8877265806 2.9194598397 2.9511930988 2.982926358 3.0146596171 3.0463928762 3.0781261353 3.1098593945 
3.1415926536 
_radius 1 100 double
1.3389123971e-14 0.29198851303 0.58190934533 0.86786866157 1.14842829 1.4227078368 1.6903590567 1.9514157569 2.2060536161 
2.4543196641 2.6959021139 2.9300022531 3.1553424286 3.3703067327 3.5731769192 3.7624062527 3.9368718153 4.0960568767 
4.2401317853 4.3699193218 4.4867477921 4.5922135781 4.6878939927 4.7750669697 4.8544996405 4.9263576577 4.9902609603 
5.0454760501 5.0912004604 5.1268718566 5.1524274292 5.1684489789 5.1761521476 5.1772103345 5.1734402906 5.1664110822 
5.1570626794 5.1454258606 5.1305166571 5.1104401516 5.0826922142 5.044607601 4.9938775543 4.9290513258 4.8499411475 
4.7578655075 4.6556883958 4.5476397624 4.4389310251 4.3352060971 4.2418962937 4.1635839391 4.1035118974 4.0633552786 
4.0432715377 4.0421411566 4.0578961143 4.0878763792 4.129168084 4.1788643856 4.2342067691 4.2926124047 4.3516337827 
4.4089097938 4.4621575956 4.5092327311 4.5482576509 4.5777910149 4.5969892327 4.6057058354 4.6044866193 4.5944437329 
4.5770195936 4.5536733543 4.5255366659 4.4930941122 4.4559477006 4.4127201278 4.3611327315 4.2982608257 4.2209290092 
4.1261739946 4.0116838186 3.8761267286 3.7193101302 3.5421511335 3.3464820237 3.1347441219 2.9096358546 2.6737767076 
2.4294346347 2.1783481914 1.9216609015 1.6599734705 1.393504583 1.1223296967 0.84664336026 0.56697578528 0.28430054026 
2.0354796665e-14 
_area 1 100 double
0 0.24267771277 0.96373969296 2.1435243642 3.7528939876 5.7570989924 8.1189387675 10.800495939 13.763568762 
16.969477859 20.378937019 23.952271953 27.649774723 31.431726247 35.257804309 39.086185747 42.873297366 46.575310429 
50.151745792 53.570232538 56.810406146 59.864924434 62.736660514 65.432646151 67.956522743 70.301746378 72.447664334 
74.36003563 75.996685627 77.317754014 78.298500625 78.941190245 79.281748217 79.387344217 79.343345713 79.232005531 
79.109226167 78.987253898 78.82898941 78.555079216 78.060756437 77.237754358 75.997309597 74.29111388 72.126935353 
69.575450705 66.765862269 63.869982172 61.076198678 58.555628295 56.427107722 54.739781002 53.491209067 52.662964245 
52.23473844 52.170477087 52.41091112 52.890148119 53.549956255 54.338615395 55.206005686 56.102468061 56.979335424 
57.788027173 58.477991576 58.996739636 59.295229317 59.338190317 59.114553822 58.642296023 57.965414794 57.144777207 
56.245642483 55.323460062 54.409929119 53.504015149 52.572102994 51.555661104 50.381352629 48.971088417 47.252793346 
45.172776389 42.707970379 39.873608856 36.722192092 33.333391715 29.799180326 26.210532999 22.649996818 19.189936807 
15.893179276 12.813310036 9.9944232889 7.4716870223 5.2736114575 3.4253698497 1.9514277149 0.8759084342 0.22035787569 
4.2632564146e-14 
