# vtk DataFile Version 5.1
vtk output
ASCII
DATASET POLYDATA
POINTS 1002 float
-12.0608 -1.04456 -2.59771 -23.3108 -12.853 -4.87765 -11.3431 -3.7432 3.40163 
-22.1461 -13.7642 0.246466 -15.1846 -7.52351 -3.10878 -14.4735 -8.68119 0.0827166 
-21.2501 -3.45646 -0.907515 -21.9476 -5.22383 2.91289 -19.1958 -23.6337 -4.28261 
-3.33409 -3.79329 -0.0504801 -27.3664 -16.0345 -2.36988 -11.3721 2.77694 1.93179 
-13.0041 -1.5752 -2.69761 -14.0971 -2.19703 -2.82249 -15.3451 -2.95528 -2.97412 
-16.803 -3.97614 -3.0972 -18.431 -5.35524 -3.19007 -19.9667 -6.99162 -3.39225 
-21.1946 -8.6528 -3.77497 -22.1291 -10.184 -4.224 -22.8303 -11.5712 -4.60721 
-11.8845 -1.44317 -2.78807 -11.7519 -1.92633 -3.01209 -11.7034 -2.53415 -3.21941 
-11.8086 -3.22412 -3.34077 -12.1156 -3.98115 -3.4391 -12.5895 -4.82945 -3.57316 
-13.1412 -5.63431 -3.60557 -13.7343 -6.27223 -3.45427 -14.41 -6.85455 -3.24762 
-12.8329 -0.977458 -2.45449 -13.7183 -0.941909 -2.27909 -14.7299 -0.989553 -2.11582 
-15.7952 -1.14048 -1.96017 -16.8282 -1.37043 -1.75726 -17.8242 -1.69693 -1.5322 
-18.7895 -2.12163 -1.35071 -19.6958 -2.58073 -1.19589 -20.5205 -3.0304 -1.04034 
-11.0153 -0.812272 -2.59176 -9.84093 -0.651855 -2.54487 -8.58731 -0.605178 -2.46708 
-7.33925 -0.675168 -2.33884 -6.0885 -0.873833 -2.13343 -4.87316 -1.30631 -1.87078 
-3.93824 -1.9901 -1.53567 -3.44131 -2.71778 -1.07807 -3.28434 -3.31439 -0.545702 
-11.6679 -0.483156 -2.41619 -11.3385 0.107733 -2.1738 -11.0626 0.686255 -1.85165 
-10.8304 1.23736 -1.47115 -10.6781 1.74063 -1.0133 -10.651 2.16999 -0.482892 
-10.7752 2.52677 0.07 -11.0078 2.7797 0.677014 -11.2292 2.86584 1.33785 
-22.8648 -12.8536 -4.92168 -22.3756 -12.8042 -4.93859 -21.8247 -12.6705 -4.90733 
-21.1579 -12.367 -4.73858 -20.4037 -11.8128 -4.42756 -19.6456 -11.0186 -4.0814 
-18.8157 -10.0405 -3.7192 -17.7609 -8.98607 -3.36372 -16.4919 -8.08189 -3.14597 
-23.4631 -11.9956 -4.65282 -23.5261 -11.0048 -4.35906 -23.4658 -9.92158 -4.00375 
-23.2876 -8.78744 -3.60924 -23.0283 -7.65868 -3.15853 -22.694 -6.62882 -2.6521 
-22.3062 -5.72265 -2.1596 -21.9316 -4.88768 -1.71416 -21.5895 -4.12032 -1.2958 
-23.3489 -14.178 -5.1201 -23.223 -15.6682 -5.33378 -22.9779 -17.2548 -5.54276 
-22.6427 -18.737 -5.73885 -22.1887 -20.0473 -5.81723 -21.6255 -21.2995 -5.7687 
-20.9792 -22.4209 -5.68046 -20.2661 -23.2043 -5.44882 -19.6134 -23.5926 -4.94388 
-23.7912 -13.6443 -4.93632 -24.2482 -14.4482 -4.95194 -24.7246 -15.1525 -4.96443 
-25.234 -15.7466 -4.89593 -25.7079 -16.2519 -4.65021 -26.1539 -16.575 -4.31698 
-26.6267 -16.659 -3.96315 -27.0394 -16.5715 -3.50412 -27.2823 -16.3582 -2.93728 
-12.3514 -4.28786 3.41 -13.5313 -4.93943 3.41367 -14.829 -5.68698 3.34081 
-16.1776 -6.51526 3.10101 -17.5775 -7.4643 2.72089 -18.9712 -8.58589 2.2239 
-20.1573 -9.86524 1.61318 -21.0291 -11.2251 1.02994 -21.6628 -12.5571 0.59062 
-11.3183 -4.25418 3.22177 -11.3901 -4.79283 2.97426 -11.5268 -5.36095 2.68282 
-11.6964 -5.9459 2.37736 -11.9491 -6.4823 2.01017 -12.3194 -6.95954 1.56829 
-12.7613 -7.464 1.16037 -13.2588 -7.98265 0.824753 -13.8338 -8.39581 0.478977 
-12.0499 -3.57413 3.54636 -12.826 -3.46302 3.7306 -13.5541 -3.40486 4.01433 
-14.3559 -3.36439 4.20988 -15.5256 -3.38244 4.0834 -16.9958 -3.55974 3.76094 
-18.4161 -3.9315 3.49284 -19.698 -4.42029 3.30259 -20.9028 -4.88362 3.11886 
-10.3752 -3.56889 3.24666 -9.38195 -3.42308 2.99751 -8.32533 -3.28666 2.69232 
-7.26305 -3.17868 2.34622 -6.30196 -3.17538 1.99033 -5.38682 -3.29292 1.71924 
-4.4944 -3.4369 1.48405 -3.8127 -3.55898 1.10561 -3.45109 -3.68466 0.553285 
-10.817 -3.08069 3.48302 -10.2993 -2.28842 3.51208 -9.83521 -1.39055 3.47688 
-9.54293 -0.52193 3.44588 -9.48519 0.267157 3.37641 -9.57909 1.04691 3.1566 
-9.8054 1.75726 2.87157 -10.2415 2.28129 2.61899 -10.8219 2.61351 2.32369 
-21.6904 -13.6306 0.20952 -21.1764 -13.3646 0.17924 -20.6107 -12.8796 0.135572 
-20.0128 -12.1987 0.0793819 -19.3285 -11.4385 0.0798828 -18.4707 -10.6586 0.184095 
-17.4756 -9.91992 0.295646 -16.4457 -9.33147 0.301641 -15.4337 -8.93088 0.212594 
-22.3162 -13.1344 0.51616 -22.4869 -12.4303 0.834163 -22.635 -11.6121 1.16462 
-22.7174 -10.7046 1.48164 -22.7566 -9.81106 1.81724 -22.8135 -8.96993 2.16612 
-22.8337 -8.11293 2.45559 -22.6934 -7.17732 2.66347 -22.371 -6.18645 2.81473 
-22.2704 -14.8908 -0.141269 -22.3106 -16.1165 -0.615017 -22.2388 -17.46 -1.10125 
-22.0095 -18.9675 -1.47619 -21.5892 -20.5101 -1.78176 -21.0381 -21.8266 -2.10695 
-20.4328 -22.8151 -2.45446 -19.8361 -23.4727 -2.92599 -19.3871 -23.7462 -3.58846 
-22.6893 -14.512 0.0573821 -23.2602 -15.2228 -0.149718 -23.8516 -15.8476 -0.333597 
-24.4814 -16.3508 -0.474107 -25.1861 -16.6926 -0.641621 -25.9126 -16.8037 -0.906369 
-26.5187 -16.7073 -1.23463 -26.9433 -16.5272 -1.58378 -27.2188 -16.3126 -1.96452 
-14.9197 -7.7561 -3.04693 -14.6946 -7.97972 -2.89612 -14.4973 -8.13186 -2.61429 
-14.3165 -8.2361 -2.27176 -14.173 -8.41785 -1.95084 -14.0975 -8.66703 -1.61017 
-14.1022 -8.79983 -1.19274 -14.1831 -8.77625 -0.733613 -14.3168 -8.71894 -0.295357 
-16.8453 -8.85738 -3.11682 -18.2805 -10.9499 -3.42418 -18.9572 -13.3179 -3.94391 
-18.9334 -15.3406 -4.43256 -18.8041 -17.0318 -4.73927 -18.8494 -18.7025 -4.86716 
-18.8904 -20.3094 -4.86876 -18.8629 -21.7135 -4.78276 -18.9254 -22.8575 -4.59458 
-13.4093 -6.97765 -3.26074 -11.7733 -6.72481 -3.35155 -10.2566 -6.30617 -3.13671 
-8.72834 -5.79173 -2.7178 -7.31661 -5.528 -2.34356 -6.0659 -5.31414 -1.97436 
-4.89204 -4.95311 -1.50947 -3.98707 -4.62165 -1.02275 -3.51022 -4.28781 -0.545941 
-15.8162 -9.18522 -0.294718 -17.2686 -10.2657 -0.781681 -18.4816 -12.2675 -1.33824 
-19.1062 -14.8759 -1.86528 -19.1816 -17.2477 -2.30812 -19.049 -19.0372 -2.71603 
-18.9004 -20.5369 -3.10994 -18.784 -21.8939 -3.47318 -18.8403 -22.9662 -3.85367 
-13.1134 -8.37738 0.172465 -11.7348 -8.05982 0.209116 -10.3462 -7.66515 0.181393 
-8.92811 -7.27614 0.131348 -7.55065 -6.95868 0.149644 -6.29711 -6.60956 0.222682 
-5.16968 -6.08936 0.239185 -4.23934 -5.39063 0.17532 -3.63199 -4.59987 0.075608 
-21.4487 -3.336 -0.593133 -21.6442 -3.20551 -0.211582 -21.8604 -3.08941 0.289414 
-22.0375 -3.11492 0.861127 -22.0832 -3.34925 1.35747 -22.0826 -3.67179 1.76802 
-22.1751 -3.99316 2.18314 -22.269 -4.36301 2.55398 -22.1936 -4.79607 2.7895 
-22.1776 -4.2842 -1.06332 -23.1676 -5.1838 -1.30925 -24.1831 -6.12175 -1.60373 
-25.1294 -7.22484 -1.89003 -25.9311 -8.81835 -2.19501 -26.6251 -10.8522 -2.51094 
-27.1948 -12.7208 -2.68543 -27.4963 -14.0775 -2.6457 -27.5051 -15.1137 -2.50286 
-20.4304 -2.55699 -0.616991 -19.5171 -1.5719 -0.333003 -18.5558 -0.553055 -0.0142737 
-17.5621 0.355628 0.343066 -16.5231 1.09753 0.655102 -15.4589 1.74547 0.908158 
-14.3945 2.25954 1.18787 -13.3395 2.5582 1.48856 -12.3221 2.70661 1.74052 
-23.0772 -6.05505 2.59207 -24.0395 -6.91478 2.17013 -24.9276 -7.92394 1.67751 
-25.8188 -9.08955 1.13253 -26.5702 -10.3568 0.548352 -27.1085 -11.7199 -0.0794179 
-27.4679 -13.0241 -0.735234 -27.586 -14.1197 -1.34949 -27.5004 -15.0962 -1.88613 
-20.8329 -4.04743 3.08557 -19.5978 -2.74269 3.22271 -18.334 -1.41604 3.40504 
-17.077 -0.16687 3.62959 -15.9516 0.902793 3.72283 -15.024 1.64565 3.54351 
-14.0962 2.04952 3.16863 -13.0723 2.30829 2.74967 -12.1273 2.55941 2.34221 
-19.9178 -24.0407 -4.29768 -20.9783 -23.8739 -4.21325 -22.2703 -23.2363 -4.0247 
-23.5386 -22.4802 -3.80078 -24.5515 -21.6102 -3.56014 -25.4317 -20.488 -3.2938 
-26.2899 -19.3548 -3.05439 -26.8975 -18.3101 -2.8399 -27.1865 -17.1867 -2.6042 
-3.2209 -2.83362 0.178362 -3.25943 -1.78226 0.378415 -3.60735 -0.820431 0.497945 
-4.30084 0.0878136 0.584679 -5.18563 0.971137 0.732207 -6.31039 1.70218 0.967061 
-7.73641 2.28656 1.25711 -9.16372 2.71144 1.53816 -10.3527 2.85606 1.76069 
-12.9248 -2.00521 -2.93471 -12.9051 -2.54635 -3.17726 -14.127 -2.6993 -3.06768 
-13.0163 -3.23268 -3.35736 -14.2694 -3.34954 -3.26056 -15.545 -3.61081 -3.15075 
-13.3206 -4.0039 -3.48198 -14.6017 -4.1237 -3.41164 -15.9122 -4.40389 -3.26713 
-17.2254 -4.84184 -3.21116 -13.7952 -4.8245 -3.5953 -15.1195 -4.9639 -3.56429 
-16.4588 -5.28196 -3.42224 -17.7756 -5.80473 -3.35436 -18.9802 -6.42632 -3.37927 
-14.3824 -5.64623 -3.59819 -15.7569 -5.87244 -3.61086 -17.1119 -6.30135 -3.56181 
-18.3881 -6.90454 -3.56336 -19.5427 -7.61003 -3.65891 -20.4694 -8.23393 -3.72618 
-15.0466 -6.39884 -3.4241 -16.4638 -6.82514 -3.47995 -17.7896 -7.48957 -3.56372 
-18.9627 -8.23591 -3.71219 -20.0289 -8.96805 -3.94952 -20.9068 -9.58885 -4.11116 
-21.5677 -9.99068 -4.16907 -15.7615 -7.17077 -3.22489 -17.1601 -7.84278 -3.34734 
-18.3922 -8.75157 -3.56668 -19.405 -9.66957 -3.8363 -20.327 -10.4408 -4.17953 
-21.1618 -11.0059 -4.46212 -21.817 -11.3533 -4.56718 -22.3441 -11.5174 -4.59226 
-10.7485 -1.27004 -2.7683 -9.50951 -1.20712 -2.72145 -10.5569 -1.8521 -2.9887 
-8.23331 -1.25842 -2.64601 -9.28928 -1.8893 -2.94986 -10.4792 -2.52333 -3.18182 
-6.95422 -1.39797 -2.47356 -7.99327 -2.01198 -2.85406 -9.19187 -2.5987 -3.15254 
-10.5911 -3.22584 -3.29977 -5.6967 -1.71103 -2.19619 -6.716 -2.25072 -2.59998 
-7.89656 -2.81146 -3.04369 -9.33131 -3.35933 -3.31494 -10.9644 -4.06392 -3.45097 
-4.62092 -2.32168 -1.88514 -5.58885 -2.72375 -2.24453 -6.74379 -3.2359 -2.72824 
-8.12497 -3.71696 -3.191 -9.80829 -4.30875 -3.48268 -11.5218 -5.03288 -3.62239 
-3.90606 -3.09415 -1.51222 -4.74175 -3.40576 -1.88707 -5.87846 -3.83492 -2.31848 
-7.16429 -4.2538 -2.80025 -8.72505 -4.67767 -3.24315 -10.4651 -5.30007 -3.563 
-12.1003 -5.86417 -3.62918 -3.56263 -3.76963 -1.04034 -4.20675 -4.07764 -1.48299 
-5.27127 -4.44324 -1.92577 -6.51197 -4.82103 -2.35617 -7.87973 -5.0927 -2.76224 
-9.4828 -5.53745 -3.19393 -11.1072 -6.10443 -3.49424 -12.6931 -6.46312 -3.46322 
-3.94705 -5.03308 -0.426006 -4.76239 -5.80008 -0.349453 -4.6414 -5.37115 -0.950827 
-5.84405 -6.51727 -0.329923 -5.61364 -6.16071 -0.933604 -5.69837 -5.73331 -1.50896 
-7.03574 -7.02504 -0.353764 -6.73535 -6.81803 -0.940461 -6.70346 -6.42772 -1.52456 
-6.92773 -5.97961 -1.9894 -8.38167 -7.36493 -0.359689 -8.00922 -7.2675 -0.924606 
-7.90641 -6.98092 -1.51053 -8.03793 -6.59274 -2.01185 -8.31235 -6.1655 -2.36688 
[...]
POINT_DATA 1002
FIELD FieldData 4
_paraPhi 1 1002 double
6.2831853072 3.1415926536 6.2831853072 3.1415926536 4.7123889804 4.7123889804 1.5707963268 1.5707963268 3.6951670125 
5.7296109483 2.5880182947 0.5535743589 6.2831853072 6.2831853072 6.2831853072 6.2831853072 3.1415926536 3.1415926536 
3.1415926536 3.1415926536 3.1415926536 6.1053039672 5.898798347 5.6768734901 5.4599499503 5.2659633393 5.1032165617 
4.9713148346 4.8656852733 4.7809517865 0.17788134 0.38438696014 0.60631181711 0.82323535693 1.0172219679 1.1799687454 
1.3118704726 1.4175000338 1.5022335207 6.1892828907 6.1070320098 6.035312792 5.9728339911 5.9183214791 5.8706119594 
5.8286879411 5.7916808611 5.7588591896 0.093902416448 0.17615329733 0.2478725152 0.31035131605 0.36486382811 0.41257334776 
0.45449736604 0.4915044461 0.52432611754 3.3194739936 3.5259796137 3.7479044707 3.9648280105 4.1588146215 4.321561399 
4.4534631262 4.5590926874 4.6438261743 2.9637113136 2.7572056934 2.5352808365 2.3183572967 2.1243706857 1.9616239082 
1.829722181 1.7240926197 1.6393591329 3.23549507 3.3177459509 3.3894651688 3.4519439696 3.5064564817 3.5541660013 
3.5960900196 3.6330970997 3.6659187711 3.0476902371 2.9654393563 2.8937201384 2.8312413375 2.7767288255 2.7290193058 
2.6870952876 2.6500882075 2.617266536 6.2831853072 6.2831853072 6.2831853072 6.2831853072 3.1415926536 3.1415926536 
3.1415926536 3.1415926536 3.1415926536 6.1053039672 5.898798347 5.6768734901 5.4599499503 5.2659633393 5.1032165617 
4.9713148346 4.8656852733 4.7809517865 0.17788134 0.38438696014 0.60631181711 0.82323535693 1.0172219679 1.1799687454 
1.3118704726 1.4175000338 1.5022335207 6.1892828907 6.1070320098 6.035312792 5.9728339911 5.9183214791 5.8706119594 
5.8286879411 5.7916808611 5.7588591896 0.093902416448 0.17615329733 0.2478725152 0.31035131605 0.36486382811 0.41257334776 
0.45449736604 0.4915044461 0.52432611754 3.3194739936 3.5259796137 3.7479044707 3.9648280105 4.1588146215 4.321561399 
4.4534631262 4.5590926874 4.6438261743 2.9637113136 2.7572056934 2.5352808365 2.3183572967 2.1243706857 1.9616239082 
1.829722181 1.7240926197 1.6393591329 3.23549507 3.3177459509 3.3894651688 3.4519439696 3.5064564817 3.5541660013 
3.5960900196 3.6330970997 3.6659187711 3.0476902371 2.9654393563 2.8937201384 2.8312413375 2.7767288255 2.7290193058 
2.6870952876 2.6500882075 2.617266536 4.7123889804 4.7123889804 4.7123889804 4.7123889804 4.7123889804 4.7123889804 
4.7123889804 4.7123889804 4.7123889804 4.6087898617 4.4991390697 4.3857031936 4.2712800401 4.1588146215 4.0509635631 
3.94975894 3.8564636551 3.7716124825 4.8159880991 4.9256388911 5.0390747672 5.1534979207 5.2659633393 5.3738143976 
5.4750190208 5.5683143056 5.6531654782 4.6087898617 4.4991390697 4.3857031936 4.2712800401 4.1588146215 4.0509635631 
3.94975894 3.8564636551 3.7716124825 4.8159880991 4.9256388911 5.0390747672 5.1534979207 5.2659633393 5.3738143976 
5.4750190208 5.5683143056 5.6531654782 1.5707963268 1.5707963268 1.5707963268 1.5707963268 1.5707963268 1.5707963268 
1.5707963268 1.5707963268 1.5707963268 1.6743954455 1.7840462375 1.8974821136 2.0119052671 2.1243706857 2.232221744 
2.3334263672 2.426721652 2.5115728246 1.4671972081 1.3575464161 1.24411054 1.1296873865 1.0172219679 0.90937090954 
0.80816628637 0.71487100155 0.63001982895 1.6743954455 1.7840462375 1.8974821136 2.0119052671 2.1243706857 2.232221744 
2.3334263672 2.426721652 2.5115728246 1.4671972081 1.3575464161 1.24411054 1.1296873865 1.0172219679 0.90937090954 
0.80816628637 0.71487100155 0.63001982895 3.6007720849 3.4966939854 3.3839471039 3.2645756454 3.1415926536 3.0186096618 
2.8992382033 2.7864913217 2.6824132222 5.8240058758 5.9280839753 6.0408308569 6.1602023154 6.2831853072 0.12298299178 
0.2423544503 0.35510133185 0.45917943135 6.0560271438 5.7885595667 5.9702140275 5.5125918794 5.6029703303 5.7885595667 
5.2659633393 5.2659633393 5.2659633393 5.2659633393 5.0674903122 5.0120975802 4.9155579264 4.7123889804 4.1588146215 
4.9155579264 4.8353719722 4.7123889804 4.5092200343 4.1588146215 3.6362183941 4.8004512023 4.7123889804 4.5894059886 
4.4126803806 4.1588146215 3.8218076305 3.4545639333 4.7123889804 4.6243267584 4.5092200343 4.3572876485 4.1588146215 
3.9121860814 3.6362183941 3.368750817 6.0174235957 5.9434319871 5.8263323547 5.8809213739 5.7674481418 5.6279784266 
5.8278025282 5.718968232 5.5891129425 5.4372443565 5.7823484065 5.678536687 5.5575666702 5.4192596322 5.2659633393 
5.743164462 5.6444075337 5.5314983644 5.4046708639 5.2659633393 5.1195510325 5.7091357773 5.6152775188 5.5096229709 
5.3926039573 5.2659633393 5.1329233157 4.9978930058 5.6793730533 5.5901633916 5.4910209005 5.3824597928 5.2659633393 
5.1440684722 5.0201624502 4.8979782167 5.5683143056 5.4750190208 5.4750190208 5.3738143976 5.3738143976 5.3738143976 
5.2659633393 5.2659633393 5.2659633393 5.2659633393 5.1534979207 5.1534979207 5.1534979207 5.1534979207 5.1534979207 
5.0390747672 5.0390747672 5.0390747672 5.0390747672 5.0390747672 5.0390747672 4.9256388911 4.9256388911 4.9256388911 
4.9256388911 4.9256388911 4.9256388911 4.9256388911 4.8159880991 4.8159880991 4.8159880991 4.8159880991 4.8159880991 
4.8159880991 4.8159880991 4.8159880991 4.6087898617 4.6087898617 4.4991390697 4.6087898617 4.4991390697 4.3857031936 
4.6087898617 4.4991390697 4.3857031936 4.2712800401 4.6087898617 4.4991390697 4.3857031936 4.2712800401 4.1588146215 
4.6087898617 4.4991390697 4.3857031936 4.2712800401 4.1588146215 4.0509635631 4.6087898617 4.4991390697 4.3857031936 
4.2712800401 4.1588146215 4.0509635631 3.94975894 4.6087898617 4.4991390697 4.3857031936 4.2712800401 4.1588146215 
4.0509635631 3.94975894 3.8564636551 4.526799744 4.4046155105 4.426884955 4.2807094886 4.2918546451 4.3052269283 
4.1588146215 4.1588146215 4.1588146215 4.1588146215 4.042318168 4.0321740035 4.0201070968 4.0055183285 3.9875336042 
3.9337570603 3.9151549899 3.8932795963 3.8672112905 3.8356650183 3.7967995342 3.8346145692 3.809500442 3.7803704271 
3.7462412737 3.7058097288 3.657329819 3.5984456061 3.7454049075 3.7156421835 3.6816134988 3.6424295543 3.5969754326 
3.5438565869 3.4813459737 3.4073543651 3.5642842451 3.4524645613 3.5233842518 3.3320300872 3.403123212 3.4773852225 
3.20576226 3.2746326772 3.348015857 3.4255060145 3.0774230472 3.1415926536 3.2112816139 3.2864685043 3.3668817272 
2.95115522 3.00855263 3.0719036933 3.1415926536 3.2178377658 3.3005964304 2.8307207459 2.8800620952 2.9351694502 
2.9967168029 3.0653475414 3.1415926536 3.225752376 2.718901062 2.7598010554 2.8058000847 2.8576792927 2.91630358 
2.9825888767 3.0574329311 3.1415926536 3.5642842451 3.5233842518 3.4524645613 3.4773852225 3.403123212 3.3320300872 
3.4255060145 3.348015857 3.2746326772 3.20576226 3.3668817272 3.2864685043 3.2112816139 3.1415926536 3.0774230472 
3.3005964304 3.2178377658 3.1415926536 3.0719036933 3.00855263 2.95115522 3.225752376 3.1415926536 3.0653475414 
2.9967168029 2.9351694502 2.8800620952 2.8307207459 3.1415926536 3.0574329311 2.9825888767 2.91630358 2.8576792927 
2.8058000847 2.7598010554 2.718901062 4.526799744 4.426884955 4.4046155105 4.3052269283 4.2918546451 4.2807094886 
4.1588146215 4.1588146215 4.1588146215 4.1588146215 3.9875336042 4.0055183285 4.0201070968 4.0321740035 4.042318168 
3.7967995342 3.8356650183 3.8672112905 3.8932795963 3.9151549899 3.9337570603 3.5984456061 3.657329819 3.7058097288 
3.7462412737 3.7803704271 3.809500442 3.8346145692 3.4073543651 3.4813459737 3.5438565869 3.5969754326 3.6424295543 
3.6816134988 3.7156421835 3.7454049075 4.7123889804 4.8004512023 4.6243267584 4.9155579264 4.7123889804 4.5092200343 
5.0674903122 4.8353719722 4.5894059886 4.3572876485 5.2659633393 5.0120975802 4.7123889804 4.4126803806 4.1588146215 
5.5125918794 5.2659633393 4.9155579264 4.5092200343 4.1588146215 3.9121860814 5.7885595667 5.6029703303 5.2659633393 
4.7123889804 4.1588146215 3.8218076305 3.6362183941 6.0560271438 5.9702140275 5.7885595667 5.2659633393 4.1588146215 
3.6362183941 3.4545639333 3.368750817 0.22715816343 0.49462574053 0.3129712797 0.77059342779 0.68021497688 0.49462574053 
1.0172219679 1.0172219679 1.0172219679 1.0172219679 1.2156949949 1.271087727 1.3676273807 1.5707963268 2.1243706857 
1.3676273807 1.447813335 1.5707963268 1.7739652728 2.1243706857 2.6469669131 1.4827341049 1.5707963268 1.6937793186 
1.8705049266 2.1243706857 2.4613776767 2.8286213739 1.5707963268 1.6588585487 1.7739652728 1.9258976586 2.1243706857 
2.3709992258 2.6469669131 2.9144344902 1.7563855631 1.8785697967 1.8563003522 2.0024758186 1.9913306621 1.9779583789 
2.1243706857 2.1243706857 2.1243706857 2.1243706857 2.2408671392 2.2510113037 2.2630782103 2.2776669786 2.295651703 
2.3494282469 2.3680303173 2.3899057108 2.4159740166 2.4475202889 2.486385773 2.448570738 2.4736848652 2.5028148801 
2.5369440334 2.5773755784 2.6258554882 2.6847397011 2.5377803997 2.5675431237 2.6015718084 2.6407557529 2.6862098746 
2.7393287203 2.8018393335 2.8758309421 1.6743954455 1.6743954455 1.7840462375 1.6743954455 1.7840462375 1.8974821136 
1.6743954455 1.7840462375 1.8974821136 2.0119052671 1.6743954455 1.7840462375 1.8974821136 2.0119052671 2.1243706857 
1.6743954455 1.7840462375 1.8974821136 2.0119052671 2.1243706857 2.232221744 1.6743954455 1.7840462375 1.8974821136 
2.0119052671 2.1243706857 2.232221744 2.3334263672 1.6743954455 1.7840462375 1.8974821136 2.0119052671 2.1243706857 
2.232221744 2.3334263672 2.426721652 1.4671972081 1.3575464161 1.4671972081 1.24411054 1.3575464161 1.4671972081 
1.1296873865 1.24411054 1.3575464161 1.4671972081 1.0172219679 1.1296873865 1.24411054 1.3575464161 1.4671972081 
0.90937090954 1.0172219679 1.1296873865 1.24411054 1.3575464161 1.4671972081 0.80816628637 0.90937090954 1.0172219679 
1.1296873865 1.24411054 1.3575464161 1.4671972081 0.71487100155 0.80816628637 0.90937090954 1.0172219679 1.1296873865 
1.24411054 1.3575464161 1.4671972081 0.60381225391 0.57404952988 0.69302191562 0.54002084522 0.66790778838 0.79216440667 
0.50083690068 0.63877777351 0.77356233629 0.90072551443 0.45538277901 0.60464862014 0.75168694275 0.89058134991 1.0172219679 
0.40226393329 0.56421707518 0.72561863695 0.87851444325 1.0172219679 1.139116835 0.33975332011 0.51573716537 0.69407236469 
0.86392567495 1.0172219679 1.1502619915 1.2630228569 0.26576171152 0.45685295248 0.6552068806 0.84594095064 1.0172219679 
1.1636342747 1.2852923014 1.3852070904 0.22715816343 0.3129712797 0.49462574053 0.49462574053 0.68021497688 0.77059342779 
1.0172219679 1.0172219679 1.0172219679 1.0172219679 2.1243706857 1.5707963268 1.3676273807 1.271087727 1.2156949949 
2.6469669131 2.1243706857 1.7739652728 1.5707963268 1.447813335 1.3676273807 2.8286213739 2.4613776767 2.1243706857 
1.8705049266 1.6937793186 1.5707963268 1.4827341049 2.9144344902 2.6469669131 2.3709992258 2.1243706857 1.9258976586 
1.7739652728 1.6588585487 1.5707963268 1.7563855631 1.8563003522 1.8785697967 1.9779583789 1.9913306621 2.0024758186 
2.1243706857 2.1243706857 2.1243706857 2.1243706857 2.295651703 2.2776669786 2.2630782103 2.2510113037 2.2408671392 
2.486385773 2.4475202889 2.4159740166 2.3899057108 2.3680303173 2.3494282469 2.6847397011 2.6258554882 2.5773755784 
2.5369440334 2.5028148801 2.4736848652 2.448570738 2.8758309421 2.8018393335 2.7393287203 2.6862098746 2.6407557529 
2.6015718084 2.5675431237 2.5377803997 5.8604937156 5.901393709 5.9723133995 5.9473927383 6.0216547488 6.0927478736 
5.9992719463 6.0767621038 6.1501452836 6.2190157008 6.0578962336 6.1383094565 6.2134963469 0 0.064169606361 
6.1241815303 6.206940195 6.2831853072 0.069688960264 0.13304002361 0.19043743361 6.1990255847 0 0.07624511221 
0.14487585072 0.20642320337 0.26153055843 0.3108719077 0 0.084159722458 0.15900377685 0.22528907359 0.28391336087 
0.3357925689 0.38179159818 0.42269159155 5.8604937156 5.9723133995 5.901393709 6.0927478736 6.0216547488 5.9473927383 
6.2190157008 6.1501452836 6.0767621038 5.9992719463 0.064169606361 0 6.2134963469 6.1383094565 6.0578962336 
0.19043743361 0.13304002361 0.069688960264 6.2831853072 6.206940195 6.1241815303 0.3108719077 0.26153055843 0.20642320337 
0.14487585072 0.07624511221 6.2831853072 6.1990255847 0.42269159155 0.38179159818 0.3357925689 0.28391336087 0.22528907359 
0.15900377685 0.084159722458 0 5.6793730533 5.7091357773 5.5901633916 5.743164462 5.6152775188 5.4910209005 
5.7823484065 5.6444075337 5.5096229709 5.3824597928 5.8278025282 5.678536687 5.5314983644 5.3926039573 5.2659633393 
5.8809213739 5.718968232 5.5575666702 5.4046708639 5.2659633393 5.1440684722 5.9434319871 5.7674481418 5.5891129425 
5.4192596322 5.2659633393 5.1329233157 5.0201624502 6.0174235957 5.8263323547 5.6279784266 5.4372443565 5.2659633393 
5.1195510325 4.9978930058 4.8979782167 1.3852070904 1.2852923014 1.2630228569 1.1636342747 1.1502619915 1.139116835 
1.0172219679 1.0172219679 1.0172219679 1.0172219679 0.84594095064 0.86392567495 0.87851444325 0.89058134991 0.90072551443 
0.6552068806 0.69407236469 0.72561863695 0.75168694275 0.77356233629 0.79216440667 0.45685295248 0.51573716537 0.56421707518 
0.60464862014 0.63877777351 0.66790778838 0.69302191562 0.26576171152 0.33975332011 0.40226393329 0.45538277901 0.50083690068 
0.54002084522 0.57404952988 0.60381225391 
_paraPhiHalf 1 1002 double
0 3.1415926536 0 3.1415926536 1.5707963268 1.5707963268 1.5707963268 1.5707963268 2.5880182947 
0.5535743589 2.5880182947 0.5535743589 0 0 0 0 3.1415926536 3.1415926536 
3.1415926536 3.1415926536 3.1415926536 0.17788134 0.38438696014 0.60631181711 0.82323535693 1.0172219679 1.1799687454 
1.3118704726 1.4175000338 1.5022335207 0.17788134 0.38438696014 0.60631181711 0.82323535693 1.0172219679 1.1799687454 
1.3118704726 1.4175000338 1.5022335207 0.093902416448 0.17615329733 0.2478725152 0.31035131605 0.36486382811 0.41257334776 
0.45449736604 0.4915044461 0.52432611754 0.093902416448 0.17615329733 0.2478725152 0.31035131605 0.36486382811 0.41257334776 
0.45449736604 0.4915044461 0.52432611754 2.9637113136 2.7572056934 2.5352808365 2.3183572967 2.1243706857 1.9616239082 
1.829722181 1.7240926197 1.6393591329 2.9637113136 2.7572056934 2.5352808365 2.3183572967 2.1243706857 1.9616239082 
1.829722181 1.7240926197 1.6393591329 3.0476902371 2.9654393563 2.8937201384 2.8312413375 2.7767288255 2.7290193058 
2.6870952876 2.6500882075 2.617266536 3.0476902371 2.9654393563 2.8937201384 2.8312413375 2.7767288255 2.7290193058 
2.6870952876 2.6500882075 2.617266536 0 0 0 0 3.1415926536 3.1415926536 
3.1415926536 3.1415926536 3.1415926536 0.17788134 0.38438696014 0.60631181711 0.82323535693 1.0172219679 1.1799687454 
1.3118704726 1.4175000338 1.5022335207 0.17788134 0.38438696014 0.60631181711 0.82323535693 1.0172219679 1.1799687454 
1.3118704726 1.4175000338 1.5022335207 0.093902416448 0.17615329733 0.2478725152 0.31035131605 0.36486382811 0.41257334776 
0.45449736604 0.4915044461 0.52432611754 0.093902416448 0.17615329733 0.2478725152 0.31035131605 0.36486382811 0.41257334776 
0.45449736604 0.4915044461 0.52432611754 2.9637113136 2.7572056934 2.5352808365 2.3183572967 2.1243706857 1.9616239082 
1.829722181 1.7240926197 1.6393591329 2.9637113136 2.7572056934 2.5352808365 2.3183572967 2.1243706857 1.9616239082 
1.829722181 1.7240926197 1.6393591329 3.0476902371 2.9654393563 2.8937201384 2.8312413375 2.7767288255 2.7290193058 
2.6870952876 2.6500882075 2.617266536 3.0476902371 2.9654393563 2.8937201384 2.8312413375 2.7767288255 2.7290193058 
2.6870952876 2.6500882075 2.617266536 1.5707963268 1.5707963268 1.5707963268 1.5707963268 1.5707963268 1.5707963268 
1.5707963268 1.5707963268 1.5707963268 1.6743954455 1.7840462375 1.8974821136 2.0119052671 2.1243706857 2.232221744 
2.3334263672 2.426721652 2.5115728246 1.4671972081 1.3575464161 1.24411054 1.1296873865 1.0172219679 0.90937090954 
0.80816628637 0.71487100155 0.63001982895 1.6743954455 1.7840462375 1.8974821136 2.0119052671 2.1243706857 2.232221744 
2.3334263672 2.426721652 2.5115728246 1.4671972081 1.3575464161 1.24411054 1.1296873865 1.0172219679 0.90937090954 
0.80816628637 0.71487100155 0.63001982895 1.5707963268 1.5707963268 1.5707963268 1.5707963268 1.5707963268 1.5707963268 
1.5707963268 1.5707963268 1.5707963268 1.6743954455 1.7840462375 1.8974821136 2.0119052671 2.1243706857 2.232221744 
2.3334263672 2.426721652 2.5115728246 1.4671972081 1.3575464161 1.24411054 1.1296873865 1.0172219679 0.90937090954 
0.80816628637 0.71487100155 0.63001982895 1.6743954455 1.7840462375 1.8974821136 2.0119052671 2.1243706857 2.232221744 
2.3334263672 2.426721652 2.5115728246 1.4671972081 1.3575464161 1.24411054 1.1296873865 1.0172219679 0.90937090954 
0.80816628637 0.71487100155 0.63001982895 2.6824132222 2.7864913217 2.8992382033 3.0186096618 3.1415926536 3.0186096618 
2.8992382033 2.7864913217 2.6824132222 0.45917943135 0.35510133185 0.2423544503 0.12298299178 0 0.12298299178 
0.2423544503 0.35510133185 0.45917943135 0.22715816343 0.49462574053 0.3129712797 0.77059342779 0.68021497688 0.49462574053 
1.0172219679 1.0172219679 1.0172219679 1.0172219679 1.2156949949 1.271087727 1.3676273807 1.5707963268 2.1243706857 
1.3676273807 1.447813335 1.5707963268 1.7739652728 2.1243706857 2.6469669131 1.4827341049 1.5707963268 1.6937793186 
1.8705049266 2.1243706857 2.4613776767 2.8286213739 1.5707963268 1.6588585487 1.7739652728 1.9258976586 2.1243706857 
2.3709992258 2.6469669131 2.9144344902 0.26576171152 0.33975332011 0.45685295248 0.40226393329 0.51573716537 0.6552068806 
0.45538277901 0.56421707518 0.69407236469 0.84594095064 0.50083690068 0.60464862014 0.72561863695 0.86392567495 1.0172219679 
0.54002084522 0.63877777351 0.75168694275 0.87851444325 1.0172219679 1.1636342747 0.57404952988 0.66790778838 0.77356233629 
0.89058134991 1.0172219679 1.1502619915 1.2852923014 0.60381225391 0.69302191562 0.79216440667 0.90072551443 1.0172219679 
1.139116835 1.2630228569 1.3852070904 0.71487100155 0.80816628637 0.80816628637 0.90937090954 0.90937090954 0.90937090954 
1.0172219679 1.0172219679 1.0172219679 1.0172219679 1.1296873865 1.1296873865 1.1296873865 1.1296873865 1.1296873865 
1.24411054 1.24411054 1.24411054 1.24411054 1.24411054 1.24411054 1.3575464161 1.3575464161 1.3575464161 
1.3575464161 1.3575464161 1.3575464161 1.3575464161 1.4671972081 1.4671972081 1.4671972081 1.4671972081 1.4671972081 
1.4671972081 1.4671972081 1.4671972081 1.6743954455 1.6743954455 1.7840462375 1.6743954455 1.7840462375 1.8974821136 
1.6743954455 1.7840462375 1.8974821136 2.0119052671 1.6743954455 1.7840462375 1.8974821136 2.0119052671 2.1243706857 
1.6743954455 1.7840462375 1.8974821136 2.0119052671 2.1243706857 2.232221744 1.6743954455 1.7840462375 1.8974821136 
2.0119052671 2.1243706857 2.232221744 2.3334263672 1.6743954455 1.7840462375 1.8974821136 2.0119052671 2.1243706857 
2.232221744 2.3334263672 2.426721652 1.7563855631 1.8785697967 1.8563003522 2.0024758186 1.9913306621 1.9779583789 
2.1243706857 2.1243706857 2.1243706857 2.1243706857 2.2408671392 2.2510113037 2.2630782103 2.2776669786 2.295651703 
2.3494282469 2.3680303173 2.3899057108 2.4159740166 2.4475202889 2.486385773 2.448570738 2.4736848652 2.5028148801 
2.5369440334 2.5773755784 2.6258554882 2.6847397011 2.5377803997 2.5675431237 2.6015718084 2.6407557529 2.6862098746 
2.7393287203 2.8018393335 2.8758309421 2.718901062 2.8307207459 2.7598010554 2.95115522 2.8800620952 2.8058000847 
3.0774230472 3.00855263 2.9351694502 2.8576792927 3.0774230472 3.1415926536 3.0719036933 2.9967168029 2.91630358 
2.95115522 3.00855263 3.0719036933 3.1415926536 3.0653475414 2.9825888767 2.8307207459 2.8800620952 2.9351694502 
2.9967168029 3.0653475414 3.1415926536 3.0574329311 2.718901062 2.7598010554 2.8058000847 2.8576792927 2.91630358 
2.9825888767 3.0574329311 3.1415926536 2.718901062 2.7598010554 2.8307207459 2.8058000847 2.8800620952 2.95115522 
2.8576792927 2.9351694502 3.00855263 3.0774230472 2.91630358 2.9967168029 3.0719036933 3.1415926536 3.0774230472 
2.9825888767 3.0653475414 3.1415926536 3.0719036933 3.00855263 2.95115522 3.0574329311 3.1415926536 3.0653475414 