# vtk DataFile Version 5.1
vtk output
ASCII
DATASET POLYDATA
POINTS 1002 float
-8.65509 -0.354712 -3.35631 8.72707 -0.484118 -3.19414 -7.87032 0.291454 3.62761 
7.7458 -0.515477 2.40511 -0.954247 1.59576 -2.00243 -1.70126 2.24869 1.54925 
-0.69314 -5.9732 -2.08415 0.418481 -6.6116 2.40196 15.4686 8.69768 0.766533 
-13.6023 7.58654 0.745503 14.1482 -2.364 -0.0490643 -12.9543 -3.51447 -0.193365 
-7.51214 -0.645991 -3.36172 -6.13857 -1.00957 -3.41967 -4.50939 -1.4093 -3.43036 
-2.57868 -1.71158 -3.26784 -0.342771 -1.86765 -3.0576 1.98945 -1.91503 -3.02369 
4.11615 -1.78702 -3.11864 5.92011 -1.43496 -3.19397 7.4399 -0.963112 -3.2212 
-8.43299 0.106565 -3.40807 -8.12028 0.568293 -3.44135 -7.61241 1.02177 -3.38091 
-6.94919 1.44253 -3.27124 -6.34217 1.81019 -3.24472 -5.68564 2.11843 -3.21067 
-4.63336 2.258 -2.98447 -3.28912 2.11812 -2.63179 -2.02998 1.82235 -2.29764 
-8.16502 -1.00741 -3.32429 -7.55583 -1.70765 -3.31207 -6.8238 -2.42452 -3.25062 
-6.02608 -3.13617 -3.13687 -5.17054 -3.81965 -3.02355 -4.23022 -4.42008 -2.87663 
-3.27531 -4.90096 -2.6703 -2.37215 -5.29955 -2.46259 -1.50902 -5.65944 -2.27232 
-9.59312 0.248017 -3.41445 -10.556 0.982584 -3.40854 -11.5074 1.8748 -3.19477 
-12.426 2.94685 -2.80631 -13.2733 4.18208 -2.40215 -13.8976 5.39722 -1.96073 
-14.1673 6.35496 -1.36019 -14.1461 7.00451 -0.641405 -13.947 7.40611 0.0804538 
-9.43358 -0.488992 -3.33586 -10.2129 -0.656932 -3.27284 -10.9306 -0.885122 -3.12187 
-11.5819 -1.19548 -2.89245 -12.1717 -1.54625 -2.61312 -12.6047 -1.94115 -2.2556 
-12.8734 -2.44183 -1.79103 -13.0551 -2.96442 -1.25607 -13.0977 -3.33554 -0.709789 
8.45207 -0.116766 -3.21847 8.06465 0.279125 -3.19636 7.52757 0.683404 -3.0937 
6.84511 1.00867 -2.91074 6.05087 1.22939 -2.67606 5.10091 1.36163 -2.4154 
3.87499 1.32453 -2.17229 2.33452 1.1702 -2.01997 0.633421 1.19748 -1.98337 
8.16703 -1.16147 -3.18457 7.47046 -1.89603 -3.15306 6.60698 -2.65926 -3.10317 
5.58519 -3.3729 -3.03041 4.46441 -3.99627 -2.92474 3.31062 -4.53753 -2.76642 
2.18376 -4.98138 -2.56985 1.13235 -5.34437 -2.38893 0.173235 -5.6761 -2.23895 
9.79406 0.279875 -3.10062 10.8913 1.19485 -2.89363 11.9894 2.25457 -2.59391 
13.0638 3.42514 -2.22132 14.0479 4.617 -1.82002 14.8422 5.77631 -1.48818 
15.3875 6.94974 -1.17254 15.6534 8.01735 -0.672344 15.6527 8.64971 0.0362277 
9.61802 -0.436655 -3.1076 10.531 -0.416122 -2.9618 11.4541 -0.395087 -2.75425 
12.357 -0.403077 -2.4639 13.1269 -0.528479 -2.08299 13.6731 -0.781964 -1.69518 
14.0698 -1.11078 -1.34945 14.3535 -1.50592 -0.963283 14.4005 -1.9481 -0.502855 
-6.74461 -0.161419 3.73121 -5.47238 -0.597599 3.82806 -4.01266 -0.999595 3.83499 
-2.324 -1.39494 3.65114 -0.449698 -1.69306 3.37392 1.46491 -1.74071 3.10601 
3.2824 -1.57321 2.79846 4.94293 -1.30468 2.52316 6.43172 -0.948759 2.40827 
-7.52187 0.653515 3.5727 -7.12032 1.02372 3.48316 -6.63226 1.37844 3.34119 
-6.05228 1.7279 3.21134 -5.38447 2.05282 3.09645 -4.66096 2.26236 2.84696 
-3.93972 2.32303 2.45434 -3.2167 2.32181 2.09269 -2.46097 2.31135 1.81585 
-7.51307 -0.340703 3.7735 -7.02648 -1.03334 3.91694 -6.30352 -1.85966 3.90606 
-5.32087 -2.80369 3.71782 -4.20674 -3.74339 3.55566 -3.0911 -4.60963 3.47276 
-2.03444 -5.36322 3.29524 -1.09256 -5.93476 2.99976 -0.285118 -6.32684 2.6928 
-8.74307 0.999493 3.47954 -9.64056 1.79301 3.29474 -10.5046 2.62685 3.06311 
-11.2849 3.49237 2.8081 -11.9748 4.39615 2.53785 -12.5831 5.28516 2.2897 
-13.0978 6.08898 2.08308 -13.463 6.7702 1.79759 -13.6257 7.28481 1.32931 
-8.79366 0.333479 3.55054 -9.82101 0.320621 3.36995 -10.8799 0.199992 3.09209 
-11.883 -0.103189 2.75481 -12.7254 -0.575448 2.3575 -13.2727 -1.10215 1.88108 
-13.4759 -1.68733 1.34669 -13.4206 -2.38137 0.803766 -13.2226 -3.04906 0.287778 
7.31255 -0.239664 2.32198 6.77045 0.00711265 2.242 6.07211 0.241908 2.15868 
5.21868 0.461562 2.07383 4.20356 0.611344 1.99301 2.97411 0.684582 1.87027 
1.6109 0.800523 1.72933 0.316433 1.10323 1.65764 -0.79188 1.61965 1.62528 
7.35689 -1.10588 2.47669 6.89879 -1.73197 2.5514 6.31249 -2.41976 2.60088 
5.60746 -3.17087 2.61741 4.88063 -3.90944 2.65066 4.10707 -4.6128 2.67898 
3.19589 -5.29618 2.63865 2.23025 -5.88064 2.56475 1.31435 -6.30538 2.49622 
8.77951 0.182866 2.34664 9.89007 0.978118 2.23179 11.0276 1.8421 2.12962 
12.1716 2.86081 2.15856 13.2999 4.0583 2.30376 14.284 5.23582 2.42741 
14.9954 6.30117 2.38227 15.4181 7.34292 2.05241 15.5665 8.23565 1.45641 
8.76584 -0.432473 2.4341 9.77399 -0.415211 2.35426 10.7118 -0.478424 2.18372 
11.6109 -0.642122 2.0589 12.4853 -0.951465 1.98162 13.1841 -1.35358 1.77756 
13.6234 -1.72526 1.3937 13.9241 -2.0201 0.930246 14.1323 -2.23359 0.44732 
-1.23552 1.88286 -1.81404 -1.49319 2.17238 -1.57057 -1.66269 2.40971 -1.28414 
-1.77862 2.63653 -0.961048 -1.88816 2.84087 -0.564086 -1.93829 2.89784 -0.0963377 
-1.89741 2.82486 0.382889 -1.82065 2.71827 0.843969 -1.75261 2.54 1.25078 
1.21957 1.39657 -1.69689 3.75645 1.92439 -1.46414 6.07193 3.0037 -1.4229 
7.7441 4.19964 -1.48278 9.2395 5.26925 -1.35067 11.0172 6.18173 -0.934278 
12.6747 7.01763 -0.449499 13.8776 7.86011 -0.0350548 14.7787 8.522 0.356876 
-2.90114 2.5717 -2.16451 -4.50247 3.83797 -2.16419 -5.96784 4.78951 -1.94216 
-7.52581 5.38801 -1.56252 -8.95808 6.07449 -1.12768 -10.0902 6.87714 -0.739994 
-11.1134 7.50545 -0.417812 -12.1017 7.84045 -0.0621863 -12.9452 7.85793 0.357918 
-0.272882 1.78151 1.31463 1.62881 1.60191 1.06498 4.06167 2.0048 0.864025 
6.72147 2.97337 0.790349 9.08902 4.2157 0.894519 10.9893 5.46536 1.11751 
12.5688 6.58835 1.29729 13.8478 7.56035 1.31074 14.7866 8.32058 1.12469 
-2.95464 3.02343 1.61031 -4.20673 3.815 1.67293 -5.50037 4.55814 1.73145 
-6.79758 5.37495 1.75976 -8.02711 6.28371 1.79994 -9.18814 7.05459 1.85984 
-10.366 7.53725 1.79439 -11.5832 7.77583 1.5302 -12.7076 7.79543 1.15487 
-0.73937 -6.30796 -1.82636 -0.833454 -6.61108 -1.48602 -0.914133 -6.89709 -1.04904 
-0.904007 -7.17687 -0.49238 -0.835837 -7.36341 0.132251 -0.728482 -7.39185 0.705668 
-0.489076 -7.31303 1.20677 -0.127912 -7.1575 1.67922 0.20592 -6.91575 2.09393 
0.679921 -6.07731 -2.01564 2.16312 -6.1692 -2.00554 3.64719 -6.25419 -2.05354 
5.23716 -6.16974 -2.05413 7.19778 -5.67831 -1.92876 9.37143 -4.87662 -1.69778 
11.223 -4.10491 -1.35872 12.5433 -3.4781 -0.919685 13.4783 -2.91176 -0.462175 
-2.03428 -6.04784 -2.01077 -3.44667 -6.09246 -1.88972 -4.93529 -6.1115 -1.74282 
-6.4359 -6.06118 -1.60969 -7.83452 -5.90403 -1.48584 -9.14333 -5.63889 -1.32034 
-10.3727 -5.2358 -1.07033 -11.4081 -4.71325 -0.762983 -12.2355 -4.13974 -0.462893 
1.72509 -6.71101 2.17295 3.21235 -6.76627 1.93551 4.82708 -6.65942 1.72089 
6.45704 -6.39436 1.53247 8.05577 -5.9781 1.29952 9.62728 -5.33187 0.979984 
11.0787 -4.54912 0.650016 12.3085 -3.79775 0.376099 13.3256 -3.08038 0.148383 
-1.00622 -6.74758 2.43616 -2.65837 -6.89835 2.36697 -4.41752 -6.89385 2.15763 
-6.16031 -6.63353 1.86537 -7.94887 -6.30152 1.57332 -9.63191 -5.98624 1.29568 
-10.8215 -5.48121 0.980052 -11.5833 -4.7673 0.590414 -12.2721 -4.07692 0.174643 
16.1417 8.39219 0.736816 16.6573 7.37875 0.694742 16.9578 5.91958 0.71376 
17.0535 4.50792 0.776072 16.8768 3.24792 0.755322 16.4396 1.92038 0.618955 
15.9742 0.575919 0.446596 15.5186 -0.581119 0.271301 14.9071 -1.53799 0.0977274 
-14.397 7.02227 0.638119 -15.0612 6.20863 0.434305 -15.4753 5.2145 0.210629 
-15.6048 4.05775 -0.00659205 -15.5437 2.70801 -0.234277 -15.3839 1.20966 -0.367454 
-15.0924 -0.302213 -0.337539 -14.5596 -1.64633 -0.263231 -13.792 -2.70281 -0.227108 
-7.15364 -0.228592 -3.40114 -6.6547 0.172488 -3.40905 -5.60501 -0.656003 -3.43792 
-6.00572 0.561198 -3.34796 -4.92771 -0.310458 -3.40924 -3.76335 -1.09576 -3.37961 
-5.32733 0.896172 -3.30478 -4.15206 0.0183001 -3.34287 -2.85039 -0.773964 -3.28794 
-1.55057 -1.39087 -3.14481 -4.57315 1.13528 -3.27699 -3.21604 0.251778 -3.25791 
-1.73971 -0.483745 -3.18085 -0.316859 -1.04893 -3.04829 0.940829 -1.49921 -2.97271 
-3.43737 1.275 -3.0655 -1.90161 0.417642 -3.03244 -0.291281 -0.234409 -2.97679 
1.13912 -0.683941 -2.95242 2.33752 -1.0451 -2.96717 3.33223 -1.4226 -3.03356 
-1.9658 1.27873 -2.67057 -0.310109 0.6251 -2.64378 1.36432 0.145751 -2.63781 
2.7317 -0.189247 -2.74038 3.77248 -0.445213 -2.9224 4.63776 -0.756179 -3.08117 
5.36054 -1.11626 -3.16798 -0.556817 1.19601 -2.28806 1.14862 0.875365 -2.28072 
2.79444 0.716696 -2.3427 4.10794 0.540723 -2.51543 5.06767 0.342867 -2.77681 
5.84272 0.0888729 -3.03138 6.51091 -0.266564 -3.18679 7.04248 -0.637071 -3.23452 
-9.42598 0.787913 -3.47781 -10.4222 1.63644 -3.42154 -9.15144 1.35106 -3.47124 
-11.3741 2.6822 -3.10816 -10.1681 2.3353 -3.33594 -8.61785 1.9014 -3.33285 
-12.2442 3.88062 -2.64792 -11.0994 3.50015 -2.95256 -9.6319 2.97252 -3.13416 
-7.91986 2.38232 -3.17366 -12.9244 5.11057 -2.17535 -11.8193 4.70538 -2.43376 
-10.5077 4.1442 -2.71409 -8.89769 3.46291 -2.9215 -7.27957 2.81684 -3.09645 
-13.2853 6.2017 -1.62546 -12.2144 5.82212 -1.8685 -11.0203 5.26163 -2.15137 
-9.62617 4.54807 -2.45725 -8.06846 3.87511 -2.74684 -6.47449 3.18231 -2.96948 
-13.3536 7.0362 -0.973512 -12.3409 6.76598 -1.26492 -11.195 6.2492 -1.55203 
-9.96008 5.52072 -1.88681 -8.53808 4.80005 -2.24446 -6.9688 4.16849 -2.55927 
-5.276 3.26857 -2.71806 -13.2291 7.58573 -0.300573 -12.3012 7.45161 -0.661838 
-11.2187 7.02254 -0.971585 -10.081 6.32282 -1.30356 -8.78804 5.5285 -1.69662 
-7.25899 4.89608 -2.08258 -5.66661 4.15864 -2.36295 -3.98894 2.99857 -2.43638 
-11.9301 7.9761 0.712107 -10.6999 7.84 1.053 -10.9824 7.80588 0.251497 
-9.43837 7.46432 1.27549 -9.72212 7.48881 0.53888 -9.99369 7.26695 -0.142589 
-8.24618 6.829 1.32948 -8.47581 6.96853 0.682163 -8.77038 6.78517 0.0462793 
-8.97927 6.47665 -0.543237 -7.00791 5.9799 1.3582 -7.19735 6.31797 0.747053 
-7.41038 6.28624 0.111756 -7.60775 6.03428 -0.443166 -7.64538 5.72721 -1.0092 
-5.65264 5.11471 1.40258 -5.77836 5.56566 0.863991 -5.88606 5.77517 0.205063 
-5.98505 5.69122 -0.383179 -6.05502 5.43752 -0.921275 -6.03799 5.13926 -1.46891 
-4.29829 4.29615 1.36796 -4.36114 4.70149 0.920912 -4.41064 5.00284 0.329596 
[...]
POINT_DATA 1002
FIELD FieldData 4
_paraPhi 1 1002 double
6.2831853072 3.1415926536 6.2831853072 3.1415926536 4.7123889804 4.7123889804 1.5707963268 1.5707963268 3.6951670125 
5.7296109483 2.5880182947 0.5535743589 6.2831853072 6.2831853072 6.2831853072 6.2831853072 3.1415926536 3.1415926536 
3.1415926536 3.1415926536 3.1415926536 6.1053039672 5.898798347 5.6768734901 5.4599499503 5.2659633393 5.1032165617 
4.9713148346 4.8656852733 4.7809517865 0.17788134 0.38438696014 0.60631181711 0.82323535693 1.0172219679 1.1799687454 
1.3118704726 1.4175000338 1.5022335207 6.1892828907 6.1070320098 6.035312792 5.9728339911 5.9183214791 5.8706119594 
5.8286879411 5.7916808611 5.7588591896 0.093902416448 0.17615329733 0.2478725152 0.31035131605 0.36486382811 0.41257334776 
0.45449736604 0.4915044461 0.52432611754 3.3194739936 3.5259796137 3.7479044707 3.9648280105 4.1588146215 4.321561399 
4.4534631262 4.5590926874 4.6438261743 2.9637113136 2.7572056934 2.5352808365 2.3183572967 2.1243706857 1.9616239082 
1.829722181 1.7240926197 1.6393591329 3.23549507 3.3177459509 3.3894651688 3.4519439696 3.5064564817 3.5541660013 
3.5960900196 3.6330970997 3.6659187711 3.0476902371 2.9654393563 2.8937201384 2.8312413375 2.7767288255 2.7290193058 
2.6870952876 2.6500882075 2.617266536 6.2831853072 6.2831853072 6.2831853072 6.2831853072 3.1415926536 3.1415926536 
3.1415926536 3.1415926536 3.1415926536 6.1053039672 5.898798347 5.6768734901 5.4599499503 5.2659633393 5.1032165617 
4.9713148346 4.8656852733 4.7809517865 0.17788134 0.38438696014 0.60631181711 0.82323535693 1.0172219679 1.1799687454 
1.3118704726 1.4175000338 1.5022335207 6.1892828907 6.1070320098 6.035312792 5.9728339911 5.9183214791 5.8706119594 
5.8286879411 5.7916808611 5.7588591896 0.093902416448 0.17615329733 0.2478725152 0.31035131605 0.36486382811 0.41257334776 
0.45449736604 0.4915044461 0.52432611754 3.3194739936 3.5259796137 3.7479044707 3.9648280105 4.1588146215 4.321561399 
4.4534631262 4.5590926874 4.6438261743 2.9637113136 2.7572056934 2.5352808365 2.3183572967 2.1243706857 1.9616239082 
1.829722181 1.7240926197 1.6393591329 3.23549507 3.3177459509 3.3894651688 3.4519439696 3.5064564817 3.5541660013 
3.5960900196 3.6330970997 3.6659187711 3.0476902371 2.9654393563 2.8937201384 2.8312413375 2.7767288255 2.7290193058 
2.6870952876 2.6500882075 2.617266536 4.7123889804 4.7123889804 4.7123889804 4.7123889804 4.7123889804 4.7123889804 
4.7123889804 4.7123889804 4.7123889804 4.6087898617 4.4991390697 4.3857031936 4.2712800401 4.1588146215 4.0509635631 
3.94975894 3.8564636551 3.7716124825 4.8159880991 4.9256388911 5.0390747672 5.1534979207 5.2659633393 5.3738143976 
5.4750190208 5.5683143056 5.6531654782 4.6087898617 4.4991390697 4.3857031936 4.2712800401 4.1588146215 4.0509635631 
3.94975894 3.8564636551 3.7716124825 4.8159880991 4.9256388911 5.0390747672 5.1534979207 5.2659633393 5.3738143976 
5.4750190208 5.5683143056 5.6531654782 1.5707963268 1.5707963268 1.5707963268 1.5707963268 1.5707963268 1.5707963268 
1.5707963268 1.5707963268 1.5707963268 1.6743954455 1.7840462375 1.8974821136 2.0119052671 2.1243706857 2.232221744 
2.3334263672 2.426721652 2.5115728246 1.4671972081 1.3575464161 1.24411054 1.1296873865 1.0172219679 0.90937090954 
0.80816628637 0.71487100155 0.63001982895 1.6743954455 1.7840462375 1.8974821136 2.0119052671 2.1243706857 2.232221744 
2.3334263672 2.426721652 2.5115728246 1.4671972081 1.3575464161 1.24411054 1.1296873865 1.0172219679 0.90937090954 
0.80816628637 0.71487100155 0.63001982895 3.6007720849 3.4966939854 3.3839471039 3.2645756454 3.1415926536 3.0186096618 
2.8992382033 2.7864913217 2.6824132222 5.8240058758 5.9280839753 6.0408308569 6.1602023154 6.2831853072 0.12298299178 
0.2423544503 0.35510133185 0.45917943135 6.0560271438 5.7885595667 5.9702140275 5.5125918794 5.6029703303 5.7885595667 
5.2659633393 5.2659633393 5.2659633393 5.2659633393 5.0674903122 5.0120975802 4.9155579264 4.7123889804 4.1588146215 
4.9155579264 4.8353719722 4.7123889804 4.5092200343 4.1588146215 3.6362183941 4.8004512023 4.7123889804 4.5894059886 
4.4126803806 4.1588146215 3.8218076305 3.4545639333 4.7123889804 4.6243267584 4.5092200343 4.3572876485 4.1588146215 
3.9121860814 3.6362183941 3.368750817 6.0174235957 5.9434319871 5.8263323547 5.8809213739 5.7674481418 5.6279784266 
5.8278025282 5.718968232 5.5891129425 5.4372443565 5.7823484065 5.678536687 5.5575666702 5.4192596322 5.2659633393 
5.743164462 5.6444075337 5.5314983644 5.4046708639 5.2659633393 5.1195510325 5.7091357773 5.6152775188 5.5096229709 
5.3926039573 5.2659633393 5.1329233157 4.9978930058 5.6793730533 5.5901633916 5.4910209005 5.3824597928 5.2659633393 
5.1440684722 5.0201624502 4.8979782167 5.5683143056 5.4750190208 5.4750190208 5.3738143976 5.3738143976 5.3738143976 
5.2659633393 5.2659633393 5.2659633393 5.2659633393 5.1534979207 5.1534979207 5.1534979207 5.1534979207 5.1534979207 
5.0390747672 5.0390747672 5.0390747672 5.0390747672 5.0390747672 5.0390747672 4.9256388911 4.9256388911 4.9256388911 
4.9256388911 4.9256388911 4.9256388911 4.9256388911 4.8159880991 4.8159880991 4.8159880991 4.8159880991 4.8159880991 
4.8159880991 4.8159880991 4.8159880991 4.6087898617 4.6087898617 4.4991390697 4.6087898617 4.4991390697 4.3857031936 
4.6087898617 4.4991390697 4.3857031936 4.2712800401 4.6087898617 4.4991390697 4.3857031936 4.2712800401 4.1588146215 
4.6087898617 4.4991390697 4.3857031936 4.2712800401 4.1588146215 4.0509635631 4.6087898617 4.4991390697 4.3857031936 
4.2712800401 4.1588146215 4.0509635631 3.94975894 4.6087898617 4.4991390697 4.3857031936 4.2712800401 4.1588146215 
4.0509635631 3.94975894 3.8564636551 4.526799744 4.4046155105 4.426884955 4.2807094886 4.2918546451 4.3052269283 
4.1588146215 4.1588146215 4.1588146215 4.1588146215 4.042318168 4.0321740035 4.0201070968 4.0055183285 3.9875336042 
3.9337570603 3.9151549899 3.8932795963 3.8672112905 3.8356650183 3.7967995342 3.8346145692 3.809500442 3.7803704271 
3.7462412737 3.7058097288 3.657329819 3.5984456061 3.7454049075 3.7156421835 3.6816134988 3.6424295543 3.5969754326 
3.5438565869 3.4813459737 3.4073543651 3.5642842451 3.4524645613 3.5233842518 3.3320300872 3.403123212 3.4773852225 
3.20576226 3.2746326772 3.348015857 3.4255060145 3.0774230472 3.1415926536 3.2112816139 3.2864685043 3.3668817272 
2.95115522 3.00855263 3.0719036933 3.1415926536 3.2178377658 3.3005964304 2.8307207459 2.8800620952 2.9351694502 
2.9967168029 3.0653475414 3.1415926536 3.225752376 2.718901062 2.7598010554 2.8058000847 2.8576792927 2.91630358 
2.9825888767 3.0574329311 3.1415926536 3.5642842451 3.5233842518 3.4524645613 3.4773852225 3.403123212 3.3320300872 
3.4255060145 3.348015857 3.2746326772 3.20576226 3.3668817272 3.2864685043 3.2112816139 3.1415926536 3.0774230472 
3.3005964304 3.2178377658 3.1415926536 3.0719036933 3.00855263 2.95115522 3.225752376 3.1415926536 3.0653475414 
2.9967168029 2.9351694502 2.8800620952 2.8307207459 3.1415926536 3.0574329311 2.9825888767 2.91630358 2.8576792927 
2.8058000847 2.7598010554 2.718901062 4.526799744 4.426884955 4.4046155105 4.3052269283 4.2918546451 4.2807094886 
4.1588146215 4.1588146215 4.1588146215 4.1588146215 3.9875336042 4.0055183285 4.0201070968 4.0321740035 4.042318168 
3.7967995342 3.8356650183 3.8672112905 3.8932795963 3.9151549899 3.9337570603 3.5984456061 3.657329819 3.7058097288 
3.7462412737 3.7803704271 3.809500442 3.8346145692 3.4073543651 3.4813459737 3.5438565869 3.5969754326 3.6424295543 
3.6816134988 3.7156421835 3.7454049075 4.7123889804 4.8004512023 4.6243267584 4.9155579264 4.7123889804 4.5092200343 
5.0674903122 4.8353719722 4.5894059886 4.3572876485 5.2659633393 5.0120975802 4.7123889804 4.4126803806 4.1588146215 
5.5125918794 5.2659633393 4.9155579264 4.5092200343 4.1588146215 3.9121860814 5.7885595667 5.6029703303 5.2659633393 
4.7123889804 4.1588146215 3.8218076305 3.6362183941 6.0560271438 5.9702140275 5.7885595667 5.2659633393 4.1588146215 
3.6362183941 3.4545639333 3.368750817 0.22715816343 0.49462574053 0.3129712797 0.77059342779 0.68021497688 0.49462574053 
1.0172219679 1.0172219679 1.0172219679 1.0172219679 1.2156949949 1.271087727 1.3676273807 1.5707963268 2.1243706857 
1.3676273807 1.447813335 1.5707963268 1.7739652728 2.1243706857 2.6469669131 1.4827341049 1.5707963268 1.6937793186 
1.8705049266 2.1243706857 2.4613776767 2.8286213739 1.5707963268 1.6588585487 1.7739652728 1.9258976586 2.1243706857 
2.3709992258 2.6469669131 2.9144344902 1.7563855631 1.8785697967 1.8563003522 2.0024758186 1.9913306621 1.9779583789 
2.1243706857 2.1243706857 2.1243706857 2.1243706857 2.2408671392 2.2510113037 2.2630782103 2.2776669786 2.295651703 
2.3494282469 2.3680303173 2.3899057108 2.4159740166 2.4475202889 2.486385773 2.448570738 2.4736848652 2.5028148801 
2.5369440334 2.5773755784 2.6258554882 2.6847397011 2.5377803997 2.5675431237 2.6015718084 2.6407557529 2.6862098746 
2.7393287203 2.8018393335 2.8758309421 1.6743954455 1.6743954455 1.7840462375 1.6743954455 1.7840462375 1.8974821136 
1.6743954455 1.7840462375 1.8974821136 2.0119052671 1.6743954455 1.7840462375 1.8974821136 2.0119052671 2.1243706857 
1.6743954455 1.7840462375 1.8974821136 2.0119052671 2.1243706857 2.232221744 1.6743954455 1.7840462375 1.8974821136 
2.0119052671 2.1243706857 2.232221744 2.3334263672 1.6743954455 1.7840462375 1.8974821136 2.0119052671 2.1243706857 
2.232221744 2.3334263672 2.426721652 1.4671972081 1.3575464161 1.4671972081 1.24411054 1.3575464161 1.4671972081 
1.1296873865 1.24411054 1.3575464161 1.4671972081 1.0172219679 1.1296873865 1.24411054 1.3575464161 1.4671972081 
0.90937090954 1.0172219679 1.1296873865 1.24411054 1.3575464161 1.4671972081 0.80816628637 0.90937090954 1.0172219679 
1.1296873865 1.24411054 1.3575464161 1.4671972081 0.71487100155 0.80816628637 0.90937090954 1.0172219679 1.1296873865 
1.24411054 1.3575464161 1.4671972081 0.60381225391 0.57404952988 0.69302191562 0.54002084522 0.66790778838 0.79216440667 
0.50083690068 0.63877777351 0.77356233629 0.90072551443 0.45538277901 0.60464862014 0.75168694275 0.89058134991 1.0172219679 
0.40226393329 0.56421707518 0.72561863695 0.87851444325 1.0172219679 1.139116835 0.33975332011 0.51573716537 0.69407236469 
0.86392567495 1.0172219679 1.1502619915 1.2630228569 0.26576171152 0.45685295248 0.6552068806 0.84594095064 1.0172219679 
1.1636342747 1.2852923014 1.3852070904 0.22715816343 0.3129712797 0.49462574053 0.49462574053 0.68021497688 0.77059342779 
1.0172219679 1.0172219679 1.0172219679 1.0172219679 2.1243706857 1.5707963268 1.3676273807 1.271087727 1.2156949949 
2.6469669131 2.1243706857 1.7739652728 1.5707963268 1.447813335 1.3676273807 2.8286213739 2.4613776767 2.1243706857 
1.8705049266 1.6937793186 1.5707963268 1.4827341049 2.9144344902 2.6469669131 2.3709992258 2.1243706857 1.9258976586 
1.7739652728 1.6588585487 1.5707963268 1.7563855631 1.8563003522 1.8785697967 1.9779583789 1.9913306621 2.0024758186 
2.1243706857 2.1243706857 2.1243706857 2.1243706857 2.295651703 2.2776669786 2.2630782103 2.2510113037 2.2408671392 
2.486385773 2.4475202889 2.4159740166 2.3899057108 2.3680303173 2.3494282469 2.6847397011 2.6258554882 2.5773755784 
2.5369440334 2.5028148801 2.4736848652 2.448570738 2.8758309421 2.8018393335 2.7393287203 2.6862098746 2.6407557529 
2.6015718084 2.5675431237 2.5377803997 5.8604937156 5.901393709 5.9723133995 5.9473927383 6.0216547488 6.0927478736 
5.9992719463 6.0767621038 6.1501452836 6.2190157008 6.0578962336 6.1383094565 6.2134963469 0 0.064169606361 
6.1241815303 6.206940195 6.2831853072 0.069688960264 0.13304002361 0.19043743361 6.1990255847 0 0.07624511221 
0.14487585072 0.20642320337 0.26153055843 0.3108719077 0 0.084159722458 0.15900377685 0.22528907359 0.28391336087 
0.3357925689 0.38179159818 0.42269159155 5.8604937156 5.9723133995 5.901393709 6.0927478736 6.0216547488 5.9473927383 
6.2190157008 6.1501452836 6.0767621038 5.9992719463 0.064169606361 0 6.2134963469 6.1383094565 6.0578962336 
0.19043743361 0.13304002361 0.069688960264 6.2831853072 6.206940195 6.1241815303 0.3108719077 0.26153055843 0.20642320337 
0.14487585072 0.07624511221 6.2831853072 6.1990255847 0.42269159155 0.38179159818 0.3357925689 0.28391336087 0.22528907359 
0.15900377685 0.084159722458 0 5.6793730533 5.7091357773 5.5901633916 5.743164462 5.6152775188 5.4910209005 
5.7823484065 5.6444075337 5.5096229709 5.3824597928 5.8278025282 5.678536687 5.5314983644 5.3926039573 5.2659633393 
5.8809213739 5.718968232 5.5575666702 5.4046708639 5.2659633393 5.1440684722 5.9434319871 5.7674481418 5.5891129425 
5.4192596322 5.2659633393 5.1329233157 5.0201624502 6.0174235957 5.8263323547 5.6279784266 5.4372443565 5.2659633393 
5.1195510325 4.9978930058 4.8979782167 1.3852070904 1.2852923014 1.2630228569 1.1636342747 1.1502619915 1.139116835 
1.0172219679 1.0172219679 1.0172219679 1.0172219679 0.84594095064 0.86392567495 0.87851444325 0.89058134991 0.90072551443 
0.6552068806 0.69407236469 0.72561863695 0.75168694275 0.77356233629 0.79216440667 0.45685295248 0.51573716537 0.56421707518 
0.60464862014 0.63877777351 0.66790778838 0.69302191562 0.26576171152 0.33975332011 0.40226393329 0.45538277901 0.50083690068 
0.54002084522 0.57404952988 0.60381225391 
_paraPhiHalf 1 1002 double
0 3.1415926536 0 3.1415926536 1.5707963268 1.5707963268 1.5707963268 1.5707963268 2.5880182947 
0.5535743589 2.5880182947 0.5535743589 0 0 0 0 3.1415926536 3.1415926536 
3.1415926536 3.1415926536 3.1415926536 0.17788134 0.38438696014 0.60631181711 0.82323535693 1.0172219679 1.1799687454 
1.3118704726 1.4175000338 1.5022335207 0.17788134 0.38438696014 0.60631181711 0.82323535693 1.0172219679 1.1799687454 
1.3118704726 1.4175000338 1.5022335207 0.093902416448 0.17615329733 0.2478725152 0.31035131605 0.36486382811 0.41257334776 
0.45449736604 0.4915044461 0.52432611754 0.093902416448 0.17615329733 0.2478725152 0.31035131605 0.36486382811 0.41257334776 
0.45449736604 0.4915044461 0.52432611754 2.9637113136 2.7572056934 2.5352808365 2.3183572967 2.1243706857 1.9616239082 
1.829722181 1.7240926197 1.6393591329 2.9637113136 2.7572056934 2.5352808365 2.3183572967 2.1243706857 1.9616239082 
1.829722181 1.7240926197 1.6393591329 3.0476902371 2.9654393563 2.8937201384 2.8312413375 2.7767288255 2.7290193058 
2.6870952876 2.6500882075 2.617266536 3.0476902371 2.9654393563 2.8937201384 2.8312413375 2.7767288255 2.7290193058 
2.6870952876 2.6500882075 2.617266536 0 0 0 0 3.1415926536 3.1415926536 
3.1415926536 3.1415926536 3.1415926536 0.17788134 0.38438696014 0.60631181711 0.82323535693 1.0172219679 1.1799687454 
1.3118704726 1.4175000338 1.5022335207 0.17788134 0.38438696014 0.60631181711 0.82323535693 1.0172219679 1.1799687454 
1.3118704726 1.4175000338 1.5022335207 0.093902416448 0.17615329733 0.2478725152 0.31035131605 0.36486382811 0.41257334776 
0.45449736604 0.4915044461 0.52432611754 0.093902416448 0.17615329733 0.2478725152 0.31035131605 0.36486382811 0.41257334776 
0.45449736604 0.4915044461 0.52432611754 2.9637113136 2.7572056934 2.5352808365 2.3183572967 2.1243706857 1.9616239082 
1.829722181 1.7240926197 1.6393591329 2.9637113136 2.7572056934 2.5352808365 2.3183572967 2.1243706857 1.9616239082 
1.829722181 1.7240926197 1.6393591329 3.0476902371 2.9654393563 2.8937201384 2.8312413375 2.7767288255 2.7290193058 
2.6870952876 2.6500882075 2.617266536 3.0476902371 2.9654393563 2.8937201384 2.8312413375 2.7767288255 2.7290193058 
2.6870952876 2.6500882075 2.617266536 1.5707963268 1.5707963268 1.5707963268 1.5707963268 1.5707963268 1.5707963268 
1.5707963268 1.5707963268 1.5707963268 1.6743954455 1.7840462375 1.8974821136 2.0119052671 2.1243706857 2.232221744 
2.3334263672 2.426721652 2.5115728246 1.4671972081 1.3575464161 1.24411054 1.1296873865 1.0172219679 0.90937090954 
0.80816628637 0.71487100155 0.63001982895 1.6743954455 1.7840462375 1.8974821136 2.0119052671 2.1243706857 2.232221744 
2.3334263672 2.426721652 2.5115728246 1.4671972081 1.3575464161 1.24411054 1.1296873865 1.0172219679 0.90937090954 
0.80816628637 0.71487100155 0.63001982895 1.5707963268 1.5707963268 1.5707963268 1.5707963268 1.5707963268 1.5707963268 
1.5707963268 1.5707963268 1.5707963268 1.6743954455 1.7840462375 1.8974821136 2.0119052671 2.1243706857 2.232221744 
2.3334263672 2.426721652 2.5115728246 1.4671972081 1.3575464161 1.24411054 1.1296873865 1.0172219679 0.90937090954 
0.80816628637 0.71487100155 0.63001982895 1.6743954455 1.7840462375 1.8974821136 2.0119052671 2.1243706857 2.232221744 
2.3334263672 2.426721652 2.5115728246 1.4671972081 1.3575464161 1.24411054 1.1296873865 1.0172219679 0.90937090954 
0.80816628637 0.71487100155 0.63001982895 2.6824132222 2.7864913217 2.8992382033 3.0186096618 3.1415926536 3.0186096618 
2.8992382033 2.7864913217 2.6824132222 0.45917943135 0.35510133185 0.2423544503 0.12298299178 0 0.12298299178 
0.2423544503 0.35510133185 0.45917943135 0.22715816343 0.49462574053 0.3129712797 0.77059342779 0.68021497688 0.49462574053 
1.0172219679 1.0172219679 1.0172219679 1.0172219679 1.2156949949 1.271087727 1.3676273807 1.5707963268 2.1243706857 
1.3676273807 1.447813335 1.5707963268 1.7739652728 2.1243706857 2.6469669131 1.4827341049 1.5707963268 1.6937793186 
1.8705049266 2.1243706857 2.4613776767 2.8286213739 1.5707963268 1.6588585487 1.7739652728 1.9258976586 2.1243706857 
2.3709992258 2.6469669131 2.9144344902 0.26576171152 0.33975332011 0.45685295248 0.40226393329 0.51573716537 0.6552068806 
0.45538277901 0.56421707518 0.69407236469 0.84594095064 0.50083690068 0.60464862014 0.72561863695 0.86392567495 1.0172219679 
0.54002084522 0.63877777351 0.75168694275 0.87851444325 1.0172219679 1.1636342747 0.57404952988 0.66790778838 0.77356233629 
0.89058134991 1.0172219679 1.1502619915 1.2852923014 0.60381225391 0.69302191562 0.79216440667 0.90072551443 1.0172219679 
1.139116835 1.2630228569 1.3852070904 0.71487100155 0.80816628637 0.80816628637 0.90937090954 0.90937090954 0.90937090954 
1.0172219679 1.0172219679 1.0172219679 1.0172219679 1.1296873865 1.1296873865 1.1296873865 1.1296873865 1.1296873865 
1.24411054 1.24411054 1.24411054 1.24411054 1.24411054 1.24411054 1.3575464161 1.3575464161 1.3575464161 
1.3575464161 1.3575464161 1.3575464161 1.3575464161 1.4671972081 1.4671972081 1.4671972081 1.4671972081 1.4671972081 
1.4671972081 1.4671972081 1.4671972081 1.6743954455 1.6743954455 1.7840462375 1.6743954455 1.7840462375 1.8974821136 
1.6743954455 1.7840462375 1.8974821136 2.0119052671 1.6743954455 1.7840462375 1.8974821136 2.0119052671 2.1243706857 
1.6743954455 1.7840462375 1.8974821136 2.0119052671 2.1243706857 2.232221744 1.6743954455 1.7840462375 1.8974821136 
2.0119052671 2.1243706857 2.232221744 2.3334263672 1.6743954455 1.7840462375 1.8974821136 2.0119052671 2.1243706857 
2.232221744 2.3334263672 2.426721652 1.7563855631 1.8785697967 1.8563003522 2.0024758186 1.9913306621 1.9779583789 
2.1243706857 2.1243706857 2.1243706857 2.1243706857 2.2408671392 2.2510113037 2.2630782103 2.2776669786 2.295651703 
2.3494282469 2.3680303173 2.3899057108 2.4159740166 2.4475202889 2.486385773 2.448570738 2.4736848652 2.5028148801 
2.5369440334 2.5773755784 2.6258554882 2.6847397011 2.5377803997 2.5675431237 2.6015718084 2.6407557529 2.6862098746 
2.7393287203 2.8018393335 2.8758309421 2.718901062 2.8307207459 2.7598010554 2.95115522 2.8800620952 2.8058000847 
3.0774230472 3.00855263 2.9351694502 2.8576792927 3.0774230472 3.1415926536 3.0719036933 2.9967168029 2.91630358 
2.95115522 3.00855263 3.0719036933 3.1415926536 3.0653475414 2.9825888767 2.8307207459 2.8800620952 2.9351694502 
2.9967168029 3.0653475414 3.1415926536 3.0574329311 2.718901062 2.7598010554 2.8058000847 2.8576792927 2.91630358 
2.9825888767 3.0574329311 3.1415926536 2.718901062 2.7598010554 2.8307207459 2.8058000847 2.8800620952 2.95115522 
2.8576792927 2.9351694502 3.00855263 3.0774230472 2.91630358 2.9967168029 3.0719036933 3.1415926536 3.0774230472 
2.9825888767 3.0653475414 3.1415926536 3.0719036933 3.00855263 2.95115522 3.0574329311 3.1415926536 3.0653475414 