# vtk DataFile Version 5.1
vtk output
ASCII
DATASET POLYDATA
POINTS 1002 float
-9.27993 -0.17776 -3.4959 9.52945 -0.681023 -3.38352 -8.60716 0.291804 3.60509 
8.304 -0.692035 2.3832 -1.05057 1.8148 -2.50421 -1.5387 2.15119 1.32844 
-0.613054 -6.18568 -2.24096 0.567317 -6.88994 2.14525 14.7139 9.4501 1.58279 
-13.909 7.82717 1.01979 14.6379 -2.88184 -0.0251372 -13.5261 -3.5381 0.108823 
-8.05501 -0.542586 -3.57629 -6.6597 -0.966226 -3.6914 -5.08359 -1.43933 -3.83383 
-3.17352 -1.88005 -3.87141 -0.806663 -2.14908 -3.71824 1.78965 -2.1604 -3.50832 
4.20266 -1.95382 -3.40935 6.2654 -1.61456 -3.43179 8.02995 -1.18479 -3.4635 
-9.00514 0.264108 -3.53202 -8.65591 0.704637 -3.60971 -8.20928 1.14417 -3.69992 
-7.55533 1.5345 -3.70373 -6.6037 1.82888 -3.60108 -5.47022 2.06657 -3.48688 
-4.35005 2.23378 -3.3628 -3.26738 2.21758 -3.13971 -2.16223 2.02722 -2.82542 
-8.76191 -0.876068 -3.52342 -8.13443 -1.6445 -3.5159 -7.41862 -2.42114 -3.42545 
-6.62164 -3.17348 -3.29646 -5.7079 -3.90447 -3.18036 -4.68436 -4.56142 -3.0305 
-3.63038 -5.10787 -2.83722 -2.59447 -5.5663 -2.64698 -1.58182 -5.92791 -2.45086 
-10.2728 0.488918 -3.42633 -11.2621 1.28577 -3.3201 -12.2265 2.20289 -3.11346 
-13.1435 3.18927 -2.76547 -13.9362 4.29073 -2.29812 -14.494 5.50556 -1.73176 
-14.7486 6.56561 -1.06826 -14.6944 7.25765 -0.346298 -14.3819 7.64535 0.369731 
-10.1154 -0.267229 -3.41062 -10.8997 -0.417835 -3.26096 -11.6284 -0.641536 -3.06077 
-12.3065 -0.941595 -2.81858 -12.8574 -1.30508 -2.46466 -13.2631 -1.71834 -2.0141 
-13.5744 -2.18334 -1.56651 -13.7378 -2.68836 -1.07839 -13.7015 -3.1684 -0.490624 
9.17639 -0.352534 -3.39482 8.70583 -0.0338787 -3.3752 8.02652 0.280159 -3.32831 
7.1514 0.550317 -3.27377 6.19232 0.73875 -3.16743 5.07412 0.87368 -2.9474 
3.6156 0.973112 -2.70105 1.92027 1.07494 -2.56548 0.298671 1.32154 -2.53221 
8.93009 -1.375 -3.41998 8.13701 -2.11562 -3.40819 7.11533 -2.85154 -3.38781 
5.97031 -3.54533 -3.32832 4.82677 -4.19382 -3.20859 3.6614 -4.74566 -3.07517 
2.47708 -5.16441 -2.90009 1.36822 -5.51998 -2.65188 0.348838 -5.86816 -2.41472 
10.6935 0.160109 -3.13571 11.8213 1.21548 -2.70702 12.8914 2.4466 -2.27304 
13.8779 3.7318 -1.94396 14.7244 4.98546 -1.55425 15.3645 6.31574 -0.980556 
15.6917 7.76883 -0.343873 15.6074 8.98311 0.289259 15.201 9.54274 0.950254 
10.5805 -0.550584 -3.22899 11.606 -0.408467 -2.97894 12.5314 -0.314616 -2.66565 
13.314 -0.385402 -2.33294 13.9073 -0.647463 -1.97308 14.3198 -1.01623 -1.60517 
14.6603 -1.47355 -1.26856 14.9135 -2.00984 -0.904719 14.9181 -2.51024 -0.468183 
-7.4271 -0.153791 3.58159 -6.02275 -0.632333 3.59646 -4.37423 -1.11369 3.62446 
-2.5742 -1.55159 3.50308 -0.72035 -1.87691 3.21745 1.21207 -2.00504 2.92227 
3.20154 -1.88875 2.67936 5.09378 -1.5732 2.50187 6.79279 -1.15193 2.41366 
-8.21184 0.695599 3.53987 -7.68401 1.08316 3.47865 -7.03514 1.43625 3.38194 
-6.36157 1.75032 3.15798 -5.68572 2.01491 2.84013 -4.91571 2.20354 2.57113 
-4.04728 2.30399 2.34169 -3.17243 2.32493 2.04874 -2.33836 2.27101 1.69387 
-8.21562 -0.404077 3.65318 -7.72798 -1.13066 3.73895 -7.19833 -1.83841 3.88469 
-6.55549 -2.58374 3.9109 -5.63785 -3.4859 3.60004 -4.45491 -4.43763 3.10582 
-3.15525 -5.20455 2.75641 -1.81734 -5.8086 2.56739 -0.527766 -6.38197 2.37804 
-9.47513 1.0045 3.53401 -10.3255 1.78287 3.341 -11.1668 2.62139 3.10382 
-11.9789 3.53791 2.93569 -12.6678 4.49194 2.78395 -13.1663 5.39266 2.57801 
-13.523 6.21403 2.33753 -13.7829 6.94524 2.01095 -13.9166 7.50668 1.54935 
-9.54646 0.282215 3.62173 -10.5752 0.216319 3.51315 -11.5764 0.0336004 3.25907 
-12.4224 -0.318167 2.96078 -13.1253 -0.759617 2.65165 -13.68 -1.23934 2.2354 
-13.96 -1.87944 1.70688 -13.9473 -2.63735 1.1634 -13.771 -3.23541 0.636279 
7.83886 -0.421176 2.33338 7.21987 -0.183284 2.22287 6.44965 0.00690765 2.06897 
5.53118 0.185657 1.95402 4.41479 0.368272 1.87026 3.11727 0.515276 1.70786 
1.79259 0.707668 1.51983 0.557063 1.08146 1.43788 -0.563927 1.60166 1.41139 
7.79395 -1.29018 2.4274 7.2265 -1.94993 2.48673 6.58102 -2.66267 2.54092 
5.83832 -3.39412 2.57001 5.06741 -4.10049 2.63364 4.37632 -4.78593 2.74333 
3.69266 -5.46194 2.75197 2.81264 -6.0703 2.58788 1.71168 -6.54707 2.35592 
9.55197 0.0226654 2.35129 10.9014 0.931939 2.3485 12.2346 2.08397 2.46327 
13.38 3.4368 2.70563 14.2002 4.85399 2.88649 14.6872 6.20166 2.94247 
14.882 7.40451 2.96142 14.8536 8.40737 2.79074 14.7622 9.11982 2.2759 
9.43929 -0.581165 2.3801 10.5648 -0.512265 2.3663 11.6276 -0.524608 2.35893 
12.5886 -0.651423 2.33113 13.4064 -0.959445 2.18882 14.0203 -1.44292 1.88248 
14.4208 -1.94025 1.4669 14.6568 -2.33845 0.992487 14.7381 -2.65018 0.47965 
-1.13239 2.11464 -2.26096 -1.25204 2.43484 -1.97343 -1.39896 2.66681 -1.65558 
-1.54564 2.81088 -1.29126 -1.64252 2.9447 -0.856262 -1.67462 2.98184 -0.390999 
-1.67625 2.83042 0.0661667 -1.65557 2.59854 0.53095 -1.60293 2.38031 0.974558 
1.04557 1.46143 -2.22719 3.54544 1.71183 -1.96684 6.07683 2.61282 -1.71364 
8.21257 3.86907 -1.44436 9.83178 5.15955 -1.12115 11.1927 6.34212 -0.670223 
12.4482 7.41999 -0.116056 13.4532 8.39039 0.451177 14.1623 9.11752 1.02035 
-2.80498 2.74381 -2.60208 -4.36502 3.86056 -2.54032 -5.94664 4.84484 -2.25226 
-7.57485 5.71321 -1.80178 -9.0094 6.56455 -1.3152 -10.227 7.26608 -0.816705 
-11.3497 7.75634 -0.264566 -12.3518 8.06523 0.280447 -13.2022 8.10358 0.713344 
0.0362003 1.7163 1.04208 2.24753 1.57228 0.82661 5.04483 2.01556 0.790139 
7.74504 3.05608 0.970254 9.67709 4.38738 1.27357 11.0297 5.722 1.54419 
12.2063 6.92288 1.7123 13.1745 7.96445 1.78894 13.9522 8.84728 1.75758 
-2.8748 2.86205 1.4121 -4.17686 3.66747 1.44809 -5.50333 4.49882 1.47358 
-6.81338 5.35145 1.56448 -8.04793 6.19951 1.71148 -9.26001 6.95374 1.81503 
-10.5102 7.56242 1.82049 -11.7568 7.96588 1.70348 -12.9116 8.053 1.42644 
-0.621706 -6.49532 -1.99174 -0.649615 -6.81061 -1.65058 -0.650429 -7.17305 -1.17421 
-0.558599 -7.50988 -0.607329 -0.392047 -7.6305 -0.0468355 -0.215686 -7.56413 0.492356 
-0.0160059 -7.52618 1.02433 0.223063 -7.49239 1.49063 0.436635 -7.28421 1.85315 
0.980148 -6.23698 -2.15608 2.64706 -6.36524 -2.17593 4.31862 -6.47846 -2.27857 
6.20402 -6.31375 -2.31389 8.45052 -5.845 -2.18322 10.5535 -5.31029 -1.87895 
11.9715 -4.77128 -1.41451 12.9327 -4.15651 -0.885806 13.8317 -3.50523 -0.415285 
-2.17674 -6.32728 -2.20527 -3.76715 -6.38413 -2.08584 -5.33516 -6.3202 -1.85742 
-6.9126 -6.17954 -1.62222 -8.42784 -5.98612 -1.43381 -9.77259 -5.68351 -1.20662 
-10.9519 -5.22224 -0.888275 -11.9702 -4.66137 -0.52978 -12.8173 -4.09966 -0.191727 
2.2006 -7.10041 1.99618 3.79001 -7.14483 1.79805 5.42696 -7.0089 1.54524 
7.16362 -6.77718 1.24223 8.84144 -6.42273 0.950359 10.2927 -5.83022 0.699589 
11.5179 -5.06881 0.473097 12.6322 -4.29847 0.291831 13.7032 -3.57301 0.145166 
-1.23599 -6.88414 2.07805 -3.17552 -6.86717 1.97115 -5.19761 -6.83314 1.88691 
-7.19777 -6.72091 1.88983 -8.90888 -6.47402 1.85568 -10.2026 -6.06191 1.61949 
-11.2239 -5.508 1.26143 -12.0981 -4.87502 0.897667 -12.8598 -4.20704 0.510614 
15.5531 9.51617 1.69606 16.296 8.85402 1.63798 16.7323 7.34408 1.41361 
17.0087 5.37565 1.12006 17.191 3.53821 0.864339 16.9941 1.95572 0.64973 
16.5172 0.451598 0.425341 16.0585 -0.916511 0.218672 15.4811 -2.01309 0.0786283 
-14.8494 7.23722 0.882297 -15.6818 6.48399 0.767523 -16.2641 5.66535 0.699058 
-16.5141 4.5864 0.548634 -16.4275 3.01068 0.293715 -16.1061 1.18687 0.121587 
-15.6675 -0.424854 0.0851752 -15.0824 -1.68945 0.0724571 -14.3296 -2.7003 0.066962 
-7.68371 -0.135195 -3.62608 -7.21208 0.253852 -3.71452 -6.16172 -0.605323 -3.77315 
-6.55325 0.625119 -3.76734 -5.4691 -0.276991 -3.84865 -4.35394 -1.13936 -3.89872 
-5.65234 0.932405 -3.72322 -4.52815 0.00981595 -3.84686 -3.34688 -0.86818 -3.88954 
-2.09663 -1.60293 -3.82414 -4.60204 1.1454 -3.63844 -3.43649 0.206779 -3.76773 
-2.13574 -0.627144 -3.79394 -0.794123 -1.29519 -3.6862 0.564183 -1.78952 -3.58019 
-3.49589 1.3028 -3.50743 -2.26191 0.349682 -3.61321 -0.807797 -0.414305 -3.63319 
0.622685 -0.931931 -3.52031 2.00165 -1.32495 -3.42368 3.23896 -1.65693 -3.41914 
-2.29133 1.38316 -3.23786 -0.923655 0.553159 -3.31217 0.678676 -0.103547 -3.37819 
2.16085 -0.481755 -3.36639 3.46323 -0.74252 -3.32521 4.64057 -1.03414 -3.36926 
5.58192 -1.32884 -3.43147 -0.986623 1.35753 -2.87228 0.539381 0.811045 -2.91432 
2.23661 0.394586 -3.03363 3.73069 0.13113 -3.18728 4.91979 -0.0486214 -3.27809 
5.97348 -0.287876 -3.34565 6.87764 -0.589969 -3.43107 7.54268 -0.886922 -3.47544 
-10.016 1.01322 -3.48061 -10.9992 1.92226 -3.33526 -9.66526 1.55999 -3.5614 
-11.9183 2.93375 -2.99484 -10.6069 2.58085 -3.33839 -9.21091 2.08209 -3.63104 
-12.7531 4.00249 -2.50236 -11.4496 3.67415 -2.85473 -10.1176 3.16019 -3.33053 
-8.49609 2.47329 -3.57613 -13.4226 5.19915 -1.96831 -12.1835 4.83881 -2.26477 
-10.9044 4.33978 -2.75224 -9.33312 3.54896 -3.19474 -7.37385 2.74497 -3.39266 
-13.8015 6.39714 -1.37447 -12.6886 6.06232 -1.69844 -11.4912 5.59627 -2.11406 
-10.0297 4.78564 -2.57651 -8.07361 3.79762 -2.95707 -6.05549 2.99032 -3.22827 
-13.8444 7.29449 -0.681162 -12.8432 7.07422 -1.07774 -11.722 6.6891 -1.52392 
-10.4196 5.99593 -1.95923 -8.67917 4.96301 -2.38652 -6.65187 3.98182 -2.80603 
-4.86615 3.12626 -3.09876 -13.6104 7.83121 0.0439009 -12.6896 7.71045 -0.384553 
-11.6192 7.37666 -0.900751 -10.4236 6.83036 -1.39477 -8.99561 5.95917 -1.84515 
-7.22505 4.96324 -2.31093 -5.42338 4.02877 -2.71386 -3.82277 3.02486 -2.89288 
-12.102 8.21066 1.01932 -10.8432 8.00929 1.17216 -11.1466 8.0318 0.448992 
-9.52863 7.52823 1.21681 -9.82387 7.7441 0.508289 -10.0625 7.58285 -0.172681 
-8.25668 6.82195 1.21119 -8.50835 7.20017 0.535566 -8.74374 7.18162 -0.128029 
-8.9013 6.92246 -0.740672 -6.98897 5.9713 1.16708 -7.17857 6.44659 0.567324 
-7.38691 6.57667 -0.0982416 -7.52827 6.41038 -0.701639 -7.59706 6.13027 -1.27597 
-5.63187 5.08383 1.11536 -5.73286 5.61611 0.607845 -5.86723 5.86897 -0.0448973 
-5.9936 5.80568 -0.677859 -6.06646 5.61598 -1.24241 -6.07063 5.32705 -1.77919 
-4.26194 4.16419 1.0748 -4.29015 4.69165 0.627018 -4.33498 5.04848 0.0461293 
[...]
POINT_DATA 1002
FIELD FieldData 4
_paraPhi 1 1002 double
6.2831853072 3.1415926536 6.2831853072 3.1415926536 4.7123889804 4.7123889804 1.5707963268 1.5707963268 3.6951670125 
5.7296109483 2.5880182947 0.5535743589 6.2831853072 6.2831853072 6.2831853072 6.2831853072 3.1415926536 3.1415926536 
3.1415926536 3.1415926536 3.1415926536 6.1053039672 5.898798347 5.6768734901 5.4599499503 5.2659633393 5.1032165617 
4.9713148346 4.8656852733 4.7809517865 0.17788134 0.38438696014 0.60631181711 0.82323535693 1.0172219679 1.1799687454 
1.3118704726 1.4175000338 1.5022335207 6.1892828907 6.1070320098 6.035312792 5.9728339911 5.9183214791 5.8706119594 
5.8286879411 5.7916808611 5.7588591896 0.093902416448 0.17615329733 0.2478725152 0.31035131605 0.36486382811 0.41257334776 
0.45449736604 0.4915044461 0.52432611754 3.3194739936 3.5259796137 3.7479044707 3.9648280105 4.1588146215 4.321561399 
4.4534631262 4.5590926874 4.6438261743 2.9637113136 2.7572056934 2.5352808365 2.3183572967 2.1243706857 1.9616239082 
1.829722181 1.7240926197 1.6393591329 3.23549507 3.3177459509 3.3894651688 3.4519439696 3.5064564817 3.5541660013 
3.5960900196 3.6330970997 3.6659187711 3.0476902371 2.9654393563 2.8937201384 2.8312413375 2.7767288255 2.7290193058 
2.6870952876 2.6500882075 2.617266536 6.2831853072 6.2831853072 6.2831853072 6.2831853072 3.1415926536 3.1415926536 
3.1415926536 3.1415926536 3.1415926536 6.1053039672 5.898798347 5.6768734901 5.4599499503 5.2659633393 5.1032165617 
4.9713148346 4.8656852733 4.7809517865 0.17788134 0.38438696014 0.60631181711 0.82323535693 1.0172219679 1.1799687454 
1.3118704726 1.4175000338 1.5022335207 6.1892828907 6.1070320098 6.035312792 5.9728339911 5.9183214791 5.8706119594 
5.8286879411 5.7916808611 5.7588591896 0.093902416448 0.17615329733 0.2478725152 0.31035131605 0.36486382811 0.41257334776 
0.45449736604 0.4915044461 0.52432611754 3.3194739936 3.5259796137 3.7479044707 3.9648280105 4.1588146215 4.321561399 
4.4534631262 4.5590926874 4.6438261743 2.9637113136 2.7572056934 2.5352808365 2.3183572967 2.1243706857 1.9616239082 
1.829722181 1.7240926197 1.6393591329 3.23549507 3.3177459509 3.3894651688 3.4519439696 3.5064564817 3.5541660013 
3.5960900196 3.6330970997 3.6659187711 3.0476902371 2.9654393563 2.8937201384 2.8312413375 2.7767288255 2.7290193058 
2.6870952876 2.6500882075 2.617266536 4.7123889804 4.7123889804 4.7123889804 4.7123889804 4.7123889804 4.7123889804 
4.7123889804 4.7123889804 4.7123889804 4.6087898617 4.4991390697 4.3857031936 4.2712800401 4.1588146215 4.0509635631 
3.94975894 3.8564636551 3.7716124825 4.8159880991 4.9256388911 5.0390747672 5.1534979207 5.2659633393 5.3738143976 
5.4750190208 5.5683143056 5.6531654782 4.6087898617 4.4991390697 4.3857031936 4.2712800401 4.1588146215 4.0509635631 
3.94975894 3.8564636551 3.7716124825 4.8159880991 4.9256388911 5.0390747672 5.1534979207 5.2659633393 5.3738143976 
5.4750190208 5.5683143056 5.6531654782 1.5707963268 1.5707963268 1.5707963268 1.5707963268 1.5707963268 1.5707963268 
1.5707963268 1.5707963268 1.5707963268 1.6743954455 1.7840462375 1.8974821136 2.0119052671 2.1243706857 2.232221744 
2.3334263672 2.426721652 2.5115728246 1.4671972081 1.3575464161 1.24411054 1.1296873865 1.0172219679 0.90937090954 
0.80816628637 0.71487100155 0.63001982895 1.6743954455 1.7840462375 1.8974821136 2.0119052671 2.1243706857 2.232221744 
2.3334263672 2.426721652 2.5115728246 1.4671972081 1.3575464161 1.24411054 1.1296873865 1.0172219679 0.90937090954 
0.80816628637 0.71487100155 0.63001982895 3.6007720849 3.4966939854 3.3839471039 3.2645756454 3.1415926536 3.0186096618 
2.8992382033 2.7864913217 2.6824132222 5.8240058758 5.9280839753 6.0408308569 6.1602023154 6.2831853072 0.12298299178 
0.2423544503 0.35510133185 0.45917943135 6.0560271438 5.7885595667 5.9702140275 5.5125918794 5.6029703303 5.7885595667 
5.2659633393 5.2659633393 5.2659633393 5.2659633393 5.0674903122 5.0120975802 4.9155579264 4.7123889804 4.1588146215 
4.9155579264 4.8353719722 4.7123889804 4.5092200343 4.1588146215 3.6362183941 4.8004512023 4.7123889804 4.5894059886 
4.4126803806 4.1588146215 3.8218076305 3.4545639333 4.7123889804 4.6243267584 4.5092200343 4.3572876485 4.1588146215 
3.9121860814 3.6362183941 3.368750817 6.0174235957 5.9434319871 5.8263323547 5.8809213739 5.7674481418 5.6279784266 
5.8278025282 5.718968232 5.5891129425 5.4372443565 5.7823484065 5.678536687 5.5575666702 5.4192596322 5.2659633393 
5.743164462 5.6444075337 5.5314983644 5.4046708639 5.2659633393 5.1195510325 5.7091357773 5.6152775188 5.5096229709 
5.3926039573 5.2659633393 5.1329233157 4.9978930058 5.6793730533 5.5901633916 5.4910209005 5.3824597928 5.2659633393 
5.1440684722 5.0201624502 4.8979782167 5.5683143056 5.4750190208 5.4750190208 5.3738143976 5.3738143976 5.3738143976 
5.2659633393 5.2659633393 5.2659633393 5.2659633393 5.1534979207 5.1534979207 5.1534979207 5.1534979207 5.1534979207 
5.0390747672 5.0390747672 5.0390747672 5.0390747672 5.0390747672 5.0390747672 4.9256388911 4.9256388911 4.9256388911 
4.9256388911 4.9256388911 4.9256388911 4.9256388911 4.8159880991 4.8159880991 4.8159880991 4.8159880991 4.8159880991 
4.8159880991 4.8159880991 4.8159880991 4.6087898617 4.6087898617 4.4991390697 4.6087898617 4.4991390697 4.3857031936 
4.6087898617 4.4991390697 4.3857031936 4.2712800401 4.6087898617 4.4991390697 4.3857031936 4.2712800401 4.1588146215 
4.6087898617 4.4991390697 4.3857031936 4.2712800401 4.1588146215 4.0509635631 4.6087898617 4.4991390697 4.3857031936 
4.2712800401 4.1588146215 4.0509635631 3.94975894 4.6087898617 4.4991390697 4.3857031936 4.2712800401 4.1588146215 
4.0509635631 3.94975894 3.8564636551 4.526799744 4.4046155105 4.426884955 4.2807094886 4.2918546451 4.3052269283 
4.1588146215 4.1588146215 4.1588146215 4.1588146215 4.042318168 4.0321740035 4.0201070968 4.0055183285 3.9875336042 
3.9337570603 3.9151549899 3.8932795963 3.8672112905 3.8356650183 3.7967995342 3.8346145692 3.809500442 3.7803704271 
3.7462412737 3.7058097288 3.657329819 3.5984456061 3.7454049075 3.7156421835 3.6816134988 3.6424295543 3.5969754326 
3.5438565869 3.4813459737 3.4073543651 3.5642842451 3.4524645613 3.5233842518 3.3320300872 3.403123212 3.4773852225 
3.20576226 3.2746326772 3.348015857 3.4255060145 3.0774230472 3.1415926536 3.2112816139 3.2864685043 3.3668817272 
2.95115522 3.00855263 3.0719036933 3.1415926536 3.2178377658 3.3005964304 2.8307207459 2.8800620952 2.9351694502 
2.9967168029 3.0653475414 3.1415926536 3.225752376 2.718901062 2.7598010554 2.8058000847 2.8576792927 2.91630358 
2.9825888767 3.0574329311 3.1415926536 3.5642842451 3.5233842518 3.4524645613 3.4773852225 3.403123212 3.3320300872 
3.4255060145 3.348015857 3.2746326772 3.20576226 3.3668817272 3.2864685043 3.2112816139 3.1415926536 3.0774230472 
3.3005964304 3.2178377658 3.1415926536 3.0719036933 3.00855263 2.95115522 3.225752376 3.1415926536 3.0653475414 
2.9967168029 2.9351694502 2.8800620952 2.8307207459 3.1415926536 3.0574329311 2.9825888767 2.91630358 2.8576792927 
2.8058000847 2.7598010554 2.718901062 4.526799744 4.426884955 4.4046155105 4.3052269283 4.2918546451 4.2807094886 
4.1588146215 4.1588146215 4.1588146215 4.1588146215 3.9875336042 4.0055183285 4.0201070968 4.0321740035 4.042318168 
3.7967995342 3.8356650183 3.8672112905 3.8932795963 3.9151549899 3.9337570603 3.5984456061 3.657329819 3.7058097288 
3.7462412737 3.7803704271 3.809500442 3.8346145692 3.4073543651 3.4813459737 3.5438565869 3.5969754326 3.6424295543 
3.6816134988 3.7156421835 3.7454049075 4.7123889804 4.8004512023 4.6243267584 4.9155579264 4.7123889804 4.5092200343 
5.0674903122 4.8353719722 4.5894059886 4.3572876485 5.2659633393 5.0120975802 4.7123889804 4.4126803806 4.1588146215 
5.5125918794 5.2659633393 4.9155579264 4.5092200343 4.1588146215 3.9121860814 5.7885595667 5.6029703303 5.2659633393 
4.7123889804 4.1588146215 3.8218076305 3.6362183941 6.0560271438 5.9702140275 5.7885595667 5.2659633393 4.1588146215 
3.6362183941 3.4545639333 3.368750817 0.22715816343 0.49462574053 0.3129712797 0.77059342779 0.68021497688 0.49462574053 
1.0172219679 1.0172219679 1.0172219679 1.0172219679 1.2156949949 1.271087727 1.3676273807 1.5707963268 2.1243706857 
1.3676273807 1.447813335 1.5707963268 1.7739652728 2.1243706857 2.6469669131 1.4827341049 1.5707963268 1.6937793186 
1.8705049266 2.1243706857 2.4613776767 2.8286213739 1.5707963268 1.6588585487 1.7739652728 1.9258976586 2.1243706857 
2.3709992258 2.6469669131 2.9144344902 1.7563855631 1.8785697967 1.8563003522 2.0024758186 1.9913306621 1.9779583789 
2.1243706857 2.1243706857 2.1243706857 2.1243706857 2.2408671392 2.2510113037 2.2630782103 2.2776669786 2.295651703 
2.3494282469 2.3680303173 2.3899057108 2.4159740166 2.4475202889 2.486385773 2.448570738 2.4736848652 2.5028148801 
2.5369440334 2.5773755784 2.6258554882 2.6847397011 2.5377803997 2.5675431237 2.6015718084 2.6407557529 2.6862098746 
2.7393287203 2.8018393335 2.8758309421 1.6743954455 1.6743954455 1.7840462375 1.6743954455 1.7840462375 1.8974821136 
1.6743954455 1.7840462375 1.8974821136 2.0119052671 1.6743954455 1.7840462375 1.8974821136 2.0119052671 2.1243706857 
1.6743954455 1.7840462375 1.8974821136 2.0119052671 2.1243706857 2.232221744 1.6743954455 1.7840462375 1.8974821136 
2.0119052671 2.1243706857 2.232221744 2.3334263672 1.6743954455 1.7840462375 1.8974821136 2.0119052671 2.1243706857 
2.232221744 2.3334263672 2.426721652 1.4671972081 1.3575464161 1.4671972081 1.24411054 1.3575464161 1.4671972081 
1.1296873865 1.24411054 1.3575464161 1.4671972081 1.0172219679 1.1296873865 1.24411054 1.3575464161 1.4671972081 
0.90937090954 1.0172219679 1.1296873865 1.24411054 1.3575464161 1.4671972081 0.80816628637 0.90937090954 1.0172219679 
1.1296873865 1.24411054 1.3575464161 1.4671972081 0.71487100155 0.80816628637 0.90937090954 1.0172219679 1.1296873865 
1.24411054 1.3575464161 1.4671972081 0.60381225391 0.57404952988 0.69302191562 0.54002084522 0.66790778838 0.79216440667 
0.50083690068 0.63877777351 0.77356233629 0.90072551443 0.45538277901 0.60464862014 0.75168694275 0.89058134991 1.0172219679 
0.40226393329 0.56421707518 0.72561863695 0.87851444325 1.0172219679 1.139116835 0.33975332011 0.51573716537 0.69407236469 
0.86392567495 1.0172219679 1.1502619915 1.2630228569 0.26576171152 0.45685295248 0.6552068806 0.84594095064 1.0172219679 
1.1636342747 1.2852923014 1.3852070904 0.22715816343 0.3129712797 0.49462574053 0.49462574053 0.68021497688 0.77059342779 
1.0172219679 1.0172219679 1.0172219679 1.0172219679 2.1243706857 1.5707963268 1.3676273807 1.271087727 1.2156949949 
2.6469669131 2.1243706857 1.7739652728 1.5707963268 1.447813335 1.3676273807 2.8286213739 2.4613776767 2.1243706857 
1.8705049266 1.6937793186 1.5707963268 1.4827341049 2.9144344902 2.6469669131 2.3709992258 2.1243706857 1.9258976586 
1.7739652728 1.6588585487 1.5707963268 1.7563855631 1.8563003522 1.8785697967 1.9779583789 1.9913306621 2.0024758186 
2.1243706857 2.1243706857 2.1243706857 2.1243706857 2.295651703 2.2776669786 2.2630782103 2.2510113037 2.2408671392 
2.486385773 2.4475202889 2.4159740166 2.3899057108 2.3680303173 2.3494282469 2.6847397011 2.6258554882 2.5773755784 
2.5369440334 2.5028148801 2.4736848652 2.448570738 2.8758309421 2.8018393335 2.7393287203 2.6862098746 2.6407557529 
2.6015718084 2.5675431237 2.5377803997 5.8604937156 5.901393709 5.9723133995 5.9473927383 6.0216547488 6.0927478736 
5.9992719463 6.0767621038 6.1501452836 6.2190157008 6.0578962336 6.1383094565 6.2134963469 0 0.064169606361 
6.1241815303 6.206940195 6.2831853072 0.069688960264 0.13304002361 0.19043743361 6.1990255847 0 0.07624511221 
0.14487585072 0.20642320337 0.26153055843 0.3108719077 0 0.084159722458 0.15900377685 0.22528907359 0.28391336087 
0.3357925689 0.38179159818 0.42269159155 5.8604937156 5.9723133995 5.901393709 6.0927478736 6.0216547488 5.9473927383 
6.2190157008 6.1501452836 6.0767621038 5.9992719463 0.064169606361 0 6.2134963469 6.1383094565 6.0578962336 
0.19043743361 0.13304002361 0.069688960264 6.2831853072 6.206940195 6.1241815303 0.3108719077 0.26153055843 0.20642320337 
0.14487585072 0.07624511221 6.2831853072 6.1990255847 0.42269159155 0.38179159818 0.3357925689 0.28391336087 0.22528907359 
0.15900377685 0.084159722458 0 5.6793730533 5.7091357773 5.5901633916 5.743164462 5.6152775188 5.4910209005 
5.7823484065 5.6444075337 5.5096229709 5.3824597928 5.8278025282 5.678536687 5.5314983644 5.3926039573 5.2659633393 
5.8809213739 5.718968232 5.5575666702 5.4046708639 5.2659633393 5.1440684722 5.9434319871 5.7674481418 5.5891129425 
5.4192596322 5.2659633393 5.1329233157 5.0201624502 6.0174235957 5.8263323547 5.6279784266 5.4372443565 5.2659633393 
5.1195510325 4.9978930058 4.8979782167 1.3852070904 1.2852923014 1.2630228569 1.1636342747 1.1502619915 1.139116835 
1.0172219679 1.0172219679 1.0172219679 1.0172219679 0.84594095064 0.86392567495 0.87851444325 0.89058134991 0.90072551443 
0.6552068806 0.69407236469 0.72561863695 0.75168694275 0.77356233629 0.79216440667 0.45685295248 0.51573716537 0.56421707518 
0.60464862014 0.63877777351 0.66790778838 0.69302191562 0.26576171152 0.33975332011 0.40226393329 0.45538277901 0.50083690068 
0.54002084522 0.57404952988 0.60381225391 
_paraPhiHalf 1 1002 double
0 3.1415926536 0 3.1415926536 1.5707963268 1.5707963268 1.5707963268 1.5707963268 2.5880182947 
0.5535743589 2.5880182947 0.5535743589 0 0 0 0 3.1415926536 3.1415926536 
3.1415926536 3.1415926536 3.1415926536 0.17788134 0.38438696014 0.60631181711 0.82323535693 1.0172219679 1.1799687454 
1.3118704726 1.4175000338 1.5022335207 0.17788134 0.38438696014 0.60631181711 0.82323535693 1.0172219679 1.1799687454 
1.3118704726 1.4175000338 1.5022335207 0.093902416448 0.17615329733 0.2478725152 0.31035131605 0.36486382811 0.41257334776 
0.45449736604 0.4915044461 0.52432611754 0.093902416448 0.17615329733 0.2478725152 0.31035131605 0.36486382811 0.41257334776 
0.45449736604 0.4915044461 0.52432611754 2.9637113136 2.7572056934 2.5352808365 2.3183572967 2.1243706857 1.9616239082 
1.829722181 1.7240926197 1.6393591329 2.9637113136 2.7572056934 2.5352808365 2.3183572967 2.1243706857 1.9616239082 
1.829722181 1.7240926197 1.6393591329 3.0476902371 2.9654393563 2.8937201384 2.8312413375 2.7767288255 2.7290193058 
2.6870952876 2.6500882075 2.617266536 3.0476902371 2.9654393563 2.8937201384 2.8312413375 2.7767288255 2.7290193058 
2.6870952876 2.6500882075 2.617266536 0 0 0 0 3.1415926536 3.1415926536 
3.1415926536 3.1415926536 3.1415926536 0.17788134 0.38438696014 0.60631181711 0.82323535693 1.0172219679 1.1799687454 
1.3118704726 1.4175000338 1.5022335207 0.17788134 0.38438696014 0.60631181711 0.82323535693 1.0172219679 1.1799687454 
1.3118704726 1.4175000338 1.5022335207 0.093902416448 0.17615329733 0.2478725152 0.31035131605 0.36486382811 0.41257334776 
0.45449736604 0.4915044461 0.52432611754 0.093902416448 0.17615329733 0.2478725152 0.31035131605 0.36486382811 0.41257334776 
0.45449736604 0.4915044461 0.52432611754 2.9637113136 2.7572056934 2.5352808365 2.3183572967 2.1243706857 1.9616239082 
1.829722181 1.7240926197 1.6393591329 2.9637113136 2.7572056934 2.5352808365 2.3183572967 2.1243706857 1.9616239082 
1.829722181 1.7240926197 1.6393591329 3.0476902371 2.9654393563 2.8937201384 2.8312413375 2.7767288255 2.7290193058 
2.6870952876 2.6500882075 2.617266536 3.0476902371 2.9654393563 2.8937201384 2.8312413375 2.7767288255 2.7290193058 
2.6870952876 2.6500882075 2.617266536 1.5707963268 1.5707963268 1.5707963268 1.5707963268 1.5707963268 1.5707963268 
1.5707963268 1.5707963268 1.5707963268 1.6743954455 1.7840462375 1.8974821136 2.0119052671 2.1243706857 2.232221744 
2.3334263672 2.426721652 2.5115728246 1.4671972081 1.3575464161 1.24411054 1.1296873865 1.0172219679 0.90937090954 
0.80816628637 0.71487100155 0.63001982895 1.6743954455 1.7840462375 1.8974821136 2.0119052671 2.1243706857 2.232221744 
2.3334263672 2.426721652 2.5115728246 1.4671972081 1.3575464161 1.24411054 1.1296873865 1.0172219679 0.90937090954 
0.80816628637 0.71487100155 0.63001982895 1.5707963268 1.5707963268 1.5707963268 1.5707963268 1.5707963268 1.5707963268 
1.5707963268 1.5707963268 1.5707963268 1.6743954455 1.7840462375 1.8974821136 2.0119052671 2.1243706857 2.232221744 
2.3334263672 2.426721652 2.5115728246 1.4671972081 1.3575464161 1.24411054 1.1296873865 1.0172219679 0.90937090954 
0.80816628637 0.71487100155 0.63001982895 1.6743954455 1.7840462375 1.8974821136 2.0119052671 2.1243706857 2.232221744 
2.3334263672 2.426721652 2.5115728246 1.4671972081 1.3575464161 1.24411054 1.1296873865 1.0172219679 0.90937090954 
0.80816628637 0.71487100155 0.63001982895 2.6824132222 2.7864913217 2.8992382033 3.0186096618 3.1415926536 3.0186096618 
2.8992382033 2.7864913217 2.6824132222 0.45917943135 0.35510133185 0.2423544503 0.12298299178 0 0.12298299178 
0.2423544503 0.35510133185 0.45917943135 0.22715816343 0.49462574053 0.3129712797 0.77059342779 0.68021497688 0.49462574053 
1.0172219679 1.0172219679 1.0172219679 1.0172219679 1.2156949949 1.271087727 1.3676273807 1.5707963268 2.1243706857 
1.3676273807 1.447813335 1.5707963268 1.7739652728 2.1243706857 2.6469669131 1.4827341049 1.5707963268 1.6937793186 
1.8705049266 2.1243706857 2.4613776767 2.8286213739 1.5707963268 1.6588585487 1.7739652728 1.9258976586 2.1243706857 
2.3709992258 2.6469669131 2.9144344902 0.26576171152 0.33975332011 0.45685295248 0.40226393329 0.51573716537 0.6552068806 
0.45538277901 0.56421707518 0.69407236469 0.84594095064 0.50083690068 0.60464862014 0.72561863695 0.86392567495 1.0172219679 
0.54002084522 0.63877777351 0.75168694275 0.87851444325 1.0172219679 1.1636342747 0.57404952988 0.66790778838 0.77356233629 
0.89058134991 1.0172219679 1.1502619915 1.2852923014 0.60381225391 0.69302191562 0.79216440667 0.90072551443 1.0172219679 
1.139116835 1.2630228569 1.3852070904 0.71487100155 0.80816628637 0.80816628637 0.90937090954 0.90937090954 0.90937090954 
1.0172219679 1.0172219679 1.0172219679 1.0172219679 1.1296873865 1.1296873865 1.1296873865 1.1296873865 1.1296873865 
1.24411054 1.24411054 1.24411054 1.24411054 1.24411054 1.24411054 1.3575464161 1.3575464161 1.3575464161 
1.3575464161 1.3575464161 1.3575464161 1.3575464161 1.4671972081 1.4671972081 1.4671972081 1.4671972081 1.4671972081 
1.4671972081 1.4671972081 1.4671972081 1.6743954455 1.6743954455 1.7840462375 1.6743954455 1.7840462375 1.8974821136 
1.6743954455 1.7840462375 1.8974821136 2.0119052671 1.6743954455 1.7840462375 1.8974821136 2.0119052671 2.1243706857 
1.6743954455 1.7840462375 1.8974821136 2.0119052671 2.1243706857 2.232221744 1.6743954455 1.7840462375 1.8974821136 
2.0119052671 2.1243706857 2.232221744 2.3334263672 1.6743954455 1.7840462375 1.8974821136 2.0119052671 2.1243706857 
2.232221744 2.3334263672 2.426721652 1.7563855631 1.8785697967 1.8563003522 2.0024758186 1.9913306621 1.9779583789 
2.1243706857 2.1243706857 2.1243706857 2.1243706857 2.2408671392 2.2510113037 2.2630782103 2.2776669786 2.295651703 
2.3494282469 2.3680303173 2.3899057108 2.4159740166 2.4475202889 2.486385773 2.448570738 2.4736848652 2.5028148801 
2.5369440334 2.5773755784 2.6258554882 2.6847397011 2.5377803997 2.5675431237 2.6015718084 2.6407557529 2.6862098746 
2.7393287203 2.8018393335 2.8758309421 2.718901062 2.8307207459 2.7598010554 2.95115522 2.8800620952 2.8058000847 
3.0774230472 3.00855263 2.9351694502 2.8576792927 3.0774230472 3.1415926536 3.0719036933 2.9967168029 2.91630358 
2.95115522 3.00855263 3.0719036933 3.1415926536 3.0653475414 2.9825888767 2.8307207459 2.8800620952 2.9351694502 
2.9967168029 3.0653475414 3.1415926536 3.0574329311 2.718901062 2.7598010554 2.8058000847 2.8576792927 2.91630358 
2.9825888767 3.0574329311 3.1415926536 2.718901062 2.7598010554 2.8307207459 2.8058000847 2.8800620952 2.95115522 
2.8576792927 2.9351694502 3.00855263 3.0774230472 2.91630358 2.9967168029 3.0719036933 3.1415926536 3.0774230472 
2.9825888767 3.0653475414 3.1415926536 3.0719036933 3.00855263 2.95115522 3.0574329311 3.1415926536 3.0653475414 