# vtk DataFile Version 5.1
vtk output
ASCII
DATASET POLYDATA
POINTS 100 float
-4.40272 3.73999 1.43592 -4.41258 3.73268 1.43508 -4.44052 3.70911 1.43636 
-4.48528 3.66978 1.43949 -4.54493 3.61542 1.44409 -4.61709 3.5468 1.44968 
-4.69921 3.46455 1.45584 -4.78883 3.36905 1.46222 -4.88384 3.26034 1.46866 
-4.98271 3.13818 1.4752 -5.08459 3.00213 1.48207 -5.18936 2.85179 1.48964 
-5.29753 2.68696 1.49835 -5.41013 2.50784 1.50862 -5.52852 2.31515 1.52073 
-5.65415 2.11011 1.53479 -5.78836 1.89439 1.55064 -5.93222 1.6699 1.56787 
-6.08639 1.43854 1.58585 -6.25111 1.20196 1.60377 -6.42615 0.961393 1.62079 
-6.61096 0.717505 1.63607 -6.80476 0.470394 1.64889 -7.00663 0.219684 1.65874 
-7.21572 -0.035313 1.66531 -7.43127 -0.2954 1.66852 -7.6527 -0.561315 1.66848 
-7.87959 -0.833597 1.66542 -8.11167 -1.11255 1.65964 -8.34872 -1.39829 1.65143 
-8.59049 -1.69083 1.64102 -8.83663 -1.99023 1.62859 -9.0866 -2.29672 1.6142 
-9.33971 -2.61079 1.5979 -9.59511 -2.9331 1.57974 -9.85186 -3.26443 1.55984 
-10.1091 -3.6055 1.53843 -10.366 -3.95675 1.51589 -10.6222 -4.31817 1.49272 
-10.8776 -4.68925 1.46953 -11.1323 -5.069 1.44694 -11.3869 -5.45613 1.42551 
-11.6424 -5.84933 1.40562 -11.8993 -6.24763 1.38735 -12.1586 -6.65075 1.37044 
-12.4205 -7.05931 1.35423 -12.6847 -7.47496 1.33767 -12.9503 -7.90025 1.31934 
-13.2155 -8.3383 1.2976 -13.4776 -8.79232 1.27068 -13.7335 -9.26507 1.23685 
-13.9794 -9.75825 1.19455 -14.2116 -10.2721 1.14253 -14.4261 -10.8052 1.07996 
-14.6199 -11.3543 1.00648 -14.7902 -11.9151 0.922231 -14.9355 -12.4822 0.827805 
-15.0553 -13.0502 0.724194 -15.1499 -13.614 0.612695 -15.2209 -14.1698 0.4948 
-15.2703 -14.7152 0.372086 -15.3008 -15.2493 0.246112 -15.3151 -15.7726 0.118335 
-15.3162 -16.2866 -0.00995104 -15.3062 -16.7932 -0.137653 -15.287 -17.2942 -0.263892 
-15.26 -17.7905 -0.387997 -15.2258 -18.2823 -0.509483 -15.1847 -18.7685 -0.628018 
-15.1364 -19.2472 -0.743387 -15.0808 -19.7159 -0.855454 -15.0177 -20.1722 -0.964127 
-14.947 -20.6139 -1.06932 -14.8694 -21.0396 -1.17095 -14.7856 -21.4489 -1.26888 
-14.6971 -21.8423 -1.36293 -14.6057 -22.2208 -1.45288 -14.5135 -22.5859 -1.53844 
-14.4229 -22.9387 -1.61929 -14.3363 -23.2797 -1.69507 -14.256 -23.6086 -1.7654 
-14.1839 -23.9243 -1.82993 -14.1218 -24.2247 -1.88833 -14.0711 -24.5077 -1.94034 
-14.0326 -24.7712 -1.9858 -14.0067 -25.0135 -2.02466 -13.9934 -25.2343 -2.05699 
-13.9922 -25.4341 -2.08302 -14.0022 -25.6147 -2.10308 -14.0221 -25.7785 -2.11766 
-14.0502 -25.9283 -2.12735 -14.0846 -26.0665 -2.13285 -14.1231 -26.1947 -2.13489 
-14.1632 -26.3133 -2.13425 -14.2025 -26.4212 -2.13171 -14.2386 -26.5163 -2.12801 
-14.2693 -26.5953 -2.12384 -14.2926 -26.6549 -2.11976 -14.3071 -26.6921 -2.11624 
-14.3119 -26.7048 -2.11359 
LINES 2 100
OFFSETS vtktypeint64
0 100 
CONNECTIVITY vtktypeint64
0 1 2 3 4 5 6 7 8 
9 10 11 12 13 14 15 16 17 
18 19 20 21 22 23 24 25 26 
27 28 29 30 31 32 33 34 35 
36 37 38 39 40 41 42 43 44 
45 46 47 48 49 50 51 52 53 
54 55 56 57 58 59 60 61 62 
63 64 65 66 67 68 69 70 71 
72 73 74 75 76 77 78 79 80 
81 82 83 84 85 86 87 88 89 
90 91 92 93 94 95 96 97 98 
99 
POINT_DATA 100
FIELD FieldData 3
_theta 1 100 double
0 0.031733259127 0.063466518254 0.095199777382 0.12693303651 0.15866629564 0.19039955476 0.22213281389 0.25386607302 
0.28559933214 0.31733259127 0.3490658504 0.38079910953 0.41253236865 0.44426562778 0.47599888691 0.50773214603 0.53946540516 
0.57119866429 0.60293192342 0.63466518254 0.66639844167 0.6981317008 0.72986495992 0.76159821905 0.79333147818 0.82506473731 
0.85679799643 0.88853125556 0.92026451469 0.95199777382 0.98373103294 1.0154642921 1.0471975512 1.0789308103 1.1106640695 
1.1423973286 1.1741305877 1.2058638468 1.237597106 1.2693303651 1.3010636242 1.3327968833 1.3645301425 1.3962634016 
1.4279966607 1.4597299198 1.491463179 1.5231964381 1.5549296972 1.5866629564 1.6183962155 1.6501294746 1.6818627337 
1.7135959929 1.745329252 1.7770625111 1.8087957702 1.8405290294 1.8722622885 1.9039955476 1.9357288068 1.9674620659 
1.999195325 2.0309285841 2.0626618433 2.0943951024 2.1261283615 2.1578616206 2.1895948798 2.2213281389 2.253061398 
2.2847946572 2.3165279163 2.3482611754 2.3799944345 2.4117276937 2.4434609528 2.4751942119 2.506927471 2.5386607302 
2.5703939893 2.6021272484 2.6338605076 2.6655937667 2.6973270258 2.7290602849 2.7607935441 2.7925268032 2.8242600623 
2.8559933214 2.8877265806 2.9194598397 2.9511930988 2.982926358 3.0146596171 3.0463928762 3.0781261353 3.1098593945 
3.1415926536 
_radius 1 100 double
4.9650683065e-15 0.30902694218 0.61486410157 0.91454764892 1.2057502358 1.4869193126 1.7572544823 2.0165532875 2.2649854742 
2.5028625021 2.7304532931 2.9478698832 3.1550220948 3.351628023 3.5372669126 3.7114651677 3.8738062058 4.0240476894 
4.1622196713 4.2886725246 4.4040505269 4.509186241 4.6049365546 4.6920034969 4.7707921143 4.8413492176 4.9034037916 
4.9565011532 5.0001982593 5.0342730178 5.0588976901 5.0747343118 5.0829260301 5.0849787913 5.0825483926 5.0771647195 
5.0699367123 5.0612890102 5.0507842471 5.0370803527 5.0180552138 4.9911005602 4.9535491664 4.9031663656 4.8386200391 
4.7598480388 4.66826576 4.5667907607 4.4596941932 4.3523075757 4.2506088023 4.1606887359 4.0880910039 4.0370662471 
4.0098877648 4.0064556477 4.0243680024 4.0594550212 4.1065816119 4.1604662602 4.2163388953 4.2703680118 4.3198602697 
4.3632694777 4.4000591677 4.4304566289 4.4551320881 4.4748474024 4.4901406702 4.5011244802 4.507452272 4.5084485376 
4.5033334546 4.4914389292 4.4723285836 4.4457862771 4.411695711 4.3698688354 4.3198812249 4.2609480877 4.1918488231 
4.1109014016 4.0160014729 3.904755933 3.7747331976 3.6238152615 3.4505864769 3.2546604385 3.036851338 2.7991401325 
2.5444487145 2.2762880607 1.9983667991 1.7142311297 1.4269725475 1.1390117889 0.85196080498 0.56657406834 0.28280815806 
2.7953241171e-14 
_area 1 100 double
0 0.26549724333 1.0507349052 2.3239367726 4.038150956 6.1383488179 8.5682678275 11.275325234 14.212854304 
17.340021721 20.62053242 24.021226043 27.511010396 31.059863029 34.637503496 38.211900067 41.748502178 45.211279018 
48.565942622 51.784417129 54.848494924 57.750525567 60.490148586 63.067963539 65.478655926 67.706582508 69.725820631 
71.504675261 73.012739967 74.227905478 75.141491767 75.761198328 76.112497706 76.238632047 76.198103608 76.058028337 
75.882941219 75.720860614 75.589762703 75.467595982 75.289095029 74.95305273 74.341740948 73.34868641 71.905993386 
70.002811901 67.691565999 65.08330157 62.335356234 59.633867409 57.171175801 55.116724875 53.585468488 52.617543794 
52.182110002 52.203651044 52.591645402 53.254974827 54.102869816 55.046671926 56.004931849 56.899899354 57.650188702 
58.182125949 58.457824989 58.49365661 58.352860583 58.115514197 57.841867961 57.548611376 57.209255521 56.774788703 
56.200571329 55.46554132 54.576234419 53.555907798 52.426204961 51.192334247 49.839302381 48.338363606 46.656685127 
44.763663679 42.632277121 40.238747034 37.56527389 34.607874294 31.386593206 27.952359783 24.385780183 20.787341418 
17.262936822 13.910564376 10.81250527 8.0335948121 5.6230968286 3.6171674981 2.0405726919 0.90817689269 0.22716013195 
1.0075703285e-13 
