# vtk DataFile Version 5.1
vtk output
ASCII
DATASET POLYDATA
POINTS 100 float
-4.83738 3.62428 1.55988 -4.84763 3.61935 1.5584 -4.8768 3.60201 1.55794 
-4.92318 3.57166 1.5589 -4.9842 3.52742 1.56181 -5.05676 3.46819 1.5672 
-5.13759 3.39284 1.57542 -5.22372 3.30028 1.58657 -5.31281 3.18969 1.60039 
-5.40338 3.06061 1.61628 -5.49493 2.91305 1.63334 -5.58788 2.7476 1.65055 
-5.68344 2.56536 1.66685 -5.7833 2.36792 1.68138 -5.88936 2.15724 1.69355 
-6.00342 1.9354 1.70312 -6.12694 1.70447 1.71021 -6.26089 1.46626 1.7152 
-6.40571 1.22213 1.71862 -6.56131 0.972927 1.721 -6.72727 0.718918 1.72273 
-6.90294 0.45986 1.72395 -7.08765 0.195126 1.72453 -7.28084 -0.0761151 1.72406 
-7.48213 -0.354702 1.72195 -7.69138 -0.641304 1.71753 -7.90859 -0.936293 1.71022 
-8.1338 -1.2397 1.69959 -8.36699 -1.55123 1.68547 -8.60791 -1.87038 1.66795 
-8.85601 -2.19658 1.6473 -9.1104 -2.52934 1.62396 -9.36987 -2.86841 1.59834 
-9.63295 -3.21383 1.57077 -9.89814 -3.56598 1.5414 -10.164 -3.92548 1.51019 
-10.4292 -4.29309 1.47696 -10.6931 -4.66957 1.44141 -10.9552 -5.0555 1.40329 
-11.2157 -5.45123 1.36244 -11.475 -5.85683 1.31894 -11.734 -6.27213 1.27303 
-11.9935 -6.69684 1.22517 -12.2544 -7.13075 1.17585 -12.517 -7.57386 1.12547 
-12.7813 -8.02651 1.07418 -13.0467 -8.48943 1.02171 -13.3119 -8.96371 0.967288 
-13.5748 -9.45061 0.909643 -13.8327 -9.95133 0.847057 -14.0827 -10.4667 0.777547 
-14.3213 -10.997 0.699083 -14.5451 -11.5416 0.609853 -14.7511 -12.0989 0.508497 
-14.9364 -12.6665 0.394309 -15.099 -13.2411 0.267347 -15.2373 -13.819 0.128451 
-15.3509 -14.3967 -0.0208386 -15.44 -14.9706 -0.178434 -15.5055 -15.5381 -0.341911 
-15.549 -16.0971 -0.508734 -15.5725 -16.6466 -0.676465 -15.5783 -17.1867 -0.842927 
-15.5687 -17.7177 -1.00631 -15.5458 -18.2407 -1.16524 -15.5114 -18.7565 -1.31872 
-15.4672 -19.2659 -1.46614 -15.4142 -19.7694 -1.60721 -15.3531 -20.2667 -1.74187 
-15.2843 -20.7573 -1.87028 -15.2081 -21.2402 -1.99277 -15.1249 -21.7145 -2.10978 
-15.0348 -22.1792 -2.2219 -14.9386 -22.6335 -2.32978 -14.8371 -23.077 -2.43408 
-14.7317 -23.5095 -2.53537 -14.6238 -23.9308 -2.6341 -14.5154 -24.3409 -2.7304 
-14.4084 -24.7394 -2.82412 -14.3047 -25.1255 -2.91472 -14.2064 -25.4978 -3.00132 
-14.1151 -25.8545 -3.08282 -14.0322 -26.1936 -3.15798 -13.9588 -26.5129 -3.22564 
-13.8956 -26.8103 -3.28491 -13.8429 -27.0843 -3.3353 -13.8007 -27.3341 -3.37683 
-13.7686 -27.5597 -3.41006 -13.7461 -27.7618 -3.43604 -13.7323 -27.9419 -3.45613 
-13.7261 -28.1018 -3.47186 -13.7262 -28.2432 -3.48466 -13.7314 -28.3679 -3.4957 
-13.74 -28.4769 -3.50574 -13.7507 -28.5706 -3.51507 -13.7618 -28.6491 -3.52355 
-13.7721 -28.7116 -3.53068 -13.7804 -28.7572 -3.53582 -13.7856 -28.7851 -3.53836 
-13.7873 -28.7946 -3.53786 
LINES 2 100
OFFSETS vtktypeint64
0 100 
CONNECTIVITY vtktypeint64
0 1 2 3 4 5 6 7 8 
9 10 11 12 13 14 15 16 17 
18 19 20 21 22 23 24 25 26 
27 28 29 30 31 32 33 34 35 
36 37 38 39 40 41 42 43 44 
45 46 47 48 49 50 51 52 53 
54 55 56 57 58 59 60 61 62 
63 64 65 66 67 68 69 70 71 
72 73 74 75 76 77 78 79 80 
81 82 83 84 85 86 87 88 89 
90 91 92 93 94 95 96 97 98 
99 
POINT_DATA 100
FIELD FieldData 3
_theta 1 100 double
0 0.031733259127 0.063466518254 0.095199777382 0.12693303651 0.15866629564 0.19039955476 0.22213281389 0.25386607302 
0.28559933214 0.31733259127 0.3490658504 0.38079910953 0.41253236865 0.44426562778 0.47599888691 0.50773214603 0.53946540516 
0.57119866429 0.60293192342 0.63466518254 0.66639844167 0.6981317008 0.72986495992 0.76159821905 0.79333147818 0.82506473731 
0.85679799643 0.88853125556 0.92026451469 0.95199777382 0.98373103294 1.0154642921 1.0471975512 1.0789308103 1.1106640695 
1.1423973286 1.1741305877 1.2058638468 1.237597106 1.2693303651 1.3010636242 1.3327968833 1.3645301425 1.3962634016 
1.4279966607 1.4597299198 1.491463179 1.5231964381 1.5549296972 1.5866629564 1.6183962155 1.6501294746 1.6818627337 
1.7135959929 1.745329252 1.7770625111 1.8087957702 1.8405290294 1.8722622885 1.9039955476 1.9357288068 1.9674620659 
1.999195325 2.0309285841 2.0626618433 2.0943951024 2.1261283615 2.1578616206 2.1895948798 2.2213281389 2.253061398 
2.2847946572 2.3165279163 2.3482611754 2.3799944345 2.4117276937 2.4434609528 2.4751942119 2.506927471 2.5386607302 
2.5703939893 2.6021272484 2.6338605076 2.6655937667 2.6973270258 2.7290602849 2.7607935441 2.7925268032 2.8242600623 
2.8559933214 2.8877265806 2.9194598397 2.9511930988 2.982926358 3.0146596171 3.0463928762 3.0781261353 3.1098593945 
3.1415926536 
_radius 1 100 double
9.8027097793e-15 0.32345936442 0.64380546041 0.95807217018 1.2637773615 1.5590571232 1.8426873863 2.1139981121 2.3727145044 
2.6187788409 2.8522061727 3.0730071171 3.2811814112 3.4767607776 3.6598683742 3.8307654151 3.9898673976 4.137724951 
4.2749729582 4.4022563294 4.5201440027 4.6290457803 4.7291487143 4.8203892593 4.9024732389 4.9749480353 5.0373216307 
5.0892130814 5.1305103901 5.1615058803 5.1829773264 5.1961867927 5.2027796176 5.2045831787 5.2033266944 5.2003249209 
5.196184507 5.1905966356 5.1822704221 5.1690393078 5.1481423042 5.1166501975 5.0719794669 5.0124170962 4.9375695215 
4.8486504637 4.7485378771 4.641562383 4.5330395964 4.4286232287 4.3336199935 4.2524373021 4.1882879939 4.1431504548 
4.1178556024 4.1121490193 4.1246773163 4.1529805201 4.1936203738 4.2425080565 4.2953842581 4.3483277898 4.3981540728 
4.4426083908 4.4803381321 4.5107053897 4.5335428042 4.5489490564 4.5571755366 4.5585972606 4.5537182732 4.543153829 
4.5275573736 4.5074997062 4.4833355646 4.4550952418 4.4224203819 4.3845411894 4.3402825006 4.2880912855 4.2260891197 
4.1521589129 4.0640711851 3.9596445666 3.8369242741 3.6943560052 3.5309323988 3.3462932888 3.1407668316 2.9153449159 
2.6715937558 2.4115101144 2.1373441094 1.8514175538 1.5559685146 1.2530464452 0.94446888763 0.63183416339 0.3165708053 
5.5663074863e-14 
_area 1 100 double
0 0.29248317627 1.1583851567 2.564080494 4.4570255478 6.771138462 9.4339518476 12.374303862 15.528828316 
18.845719892 22.285205268 25.817402329 29.419106316 33.070966833 36.755559135 40.455754565 44.152552541 47.822482574 
51.435886694 54.957421246 58.348768555 61.572165251 64.593151867 67.381810567 69.912777545 72.164864654 74.121203931 
75.770658167 77.110782117 78.151703701 78.919207761 79.454956019 79.812885199 80.0527437 80.232605732 80.401158205 
80.58906989 80.798858972 80.994704336 81.096353391 80.982930177 80.511136397 79.547086847 78.004138456 75.875134479 
73.248636041 70.303012269 67.276344863 64.413371409 61.901094109 59.827879273 58.198532424 56.982921202 56.149234655 
55.667231712 55.499046883 55.598875758 55.92225878 56.42586023 57.051483008 57.718079678 58.3428638 58.871430136 
59.283871024 59.578481703 59.755595567 59.807914901 59.714950206 59.446500261 58.977598211 58.306028502 57.459676586 
56.488505408 55.44624041 54.372026385 53.280401762 52.161670028 50.989028906 49.726907329 48.336780642 46.779989189 
45.019191495 43.020223616 40.755346813 38.207996459 35.378180402 32.286845789 28.97750919 25.514387608 21.977528348 
18.45623656 15.042195956 11.823355143 8.8792753077 6.2783142141 4.0766679594 2.3188574939 1.0388548693 0.26096518093 
2.3122973289e-13 
