# vtk DataFile Version 5.1
vtk output
ASCII
DATASET POLYDATA
POINTS 1002 float
-11.6379 -0.401043 -2.7828 -23.8462 -13.2947 -5.2489 -11.2381 -3.52936 3.87939 
-22.57 -14.0424 0.355269 -15.5229 -8.15112 -3.0683 -13.9007 -8.99209 0.385594 
-21.3898 -3.17587 -0.959389 -22.0336 -4.80333 3.36368 -19.1287 -24.818 -5.13233 
-1.87826 -3.01108 -0.12575 -28.4299 -16.6473 -2.54388 -10.9426 3.73964 1.97472 
-12.6764 -1.06271 -2.82942 -13.8995 -1.86413 -2.9351 -15.2884 -2.81726 -3.06555 
-16.8384 -4.0254 -3.14308 -18.5329 -5.59806 -3.22402 -20.2075 -7.36432 -3.49204 
-21.6164 -9.02879 -3.97644 -22.6502 -10.5451 -4.50548 -23.3603 -11.979 -4.93777 
-11.4341 -0.824275 -2.97534 -11.3171 -1.35797 -3.14843 -11.3086 -2.07165 -3.24976 
-11.3511 -2.83598 -3.35799 -11.4155 -3.51179 -3.52614 -11.6924 -4.25523 -3.57857 
-12.4134 -5.22539 -3.43101 -13.4827 -6.2985 -3.25843 -14.5834 -7.29067 -3.15816 
-12.5026 -0.371964 -2.63029 -13.4679 -0.378774 -2.48751 -14.5244 -0.481246 -2.31257 
-15.6265 -0.696808 -2.082 -16.7288 -0.985496 -1.8456 -17.8164 -1.33387 -1.66302 
-18.8575 -1.74167 -1.51177 -19.8053 -2.18989 -1.33418 -20.6457 -2.67431 -1.1336 
-10.4919 -0.0708516 -2.87901 -9.24907 0.204789 -2.95467 -7.93232 0.365886 -2.91838 
-6.50099 0.325462 -2.75888 -4.95391 0.0288688 -2.55902 -3.55037 -0.483816 -2.29557 
-2.5779 -1.10699 -1.84891 -2.03125 -1.76142 -1.2465 -1.80675 -2.41039 -0.640226 
-11.2176 0.24903 -2.64726 -10.8403 0.946262 -2.45517 -10.517 1.59746 -2.13126 
-10.2746 2.16462 -1.68968 -10.1387 2.73106 -1.23628 -10.1672 3.27586 -0.744082 
-10.3655 3.67263 -0.0868123 -10.6061 3.87871 0.683788 -10.792 3.89353 1.39677 
-23.3567 -13.3345 -5.28505 -22.7993 -13.2732 -5.28811 -22.169 -13.1459 -5.22683 
-21.4521 -12.9343 -5.0201 -20.7002 -12.5462 -4.66862 -19.9948 -11.9747 -4.25819 
-19.2663 -11.2135 -3.83163 -18.3053 -10.1951 -3.4432 -17.0112 -9.06469 -3.18273 
-24.0148 -12.3703 -5.00091 -24.0971 -11.3148 -4.6892 -24.0675 -10.173 -4.31938 
-23.8956 -8.9865 -3.88857 -23.5801 -7.80473 -3.3869 -23.169 -6.70282 -2.85193 
-22.7123 -5.71096 -2.3437 -22.2433 -4.79624 -1.86104 -21.7961 -3.94364 -1.39039 
-23.906 -14.6426 -5.52413 -23.812 -16.1121 -5.737 -23.5389 -17.6894 -5.8996 
-23.1082 -19.2699 -6.07702 -22.5798 -20.7095 -6.26452 -21.9532 -22.0047 -6.42067 
-21.1418 -23.1999 -6.5209 -20.2056 -24.1597 -6.40492 -19.4514 -24.7019 -5.9071 
-24.3859 -13.9908 -5.34217 -24.9444 -14.6618 -5.37462 -25.5225 -15.3408 -5.37126 
-26.1351 -16.0407 -5.3229 -26.744 -16.6869 -5.14009 -27.2601 -17.176 -4.78725 
-27.692 -17.4256 -4.33512 -28.0842 -17.3827 -3.8061 -28.3591 -17.0835 -3.18696 
-12.2649 -4.10992 3.94259 -13.4289 -4.79482 3.91763 -14.7608 -5.63588 3.7807 
-16.2289 -6.61039 3.5234 -17.7106 -7.68667 3.12557 -19.0714 -8.90437 2.57774 
-20.2475 -10.2462 1.95025 -21.225 -11.589 1.34367 -21.9951 -12.8553 0.806112 
-11.1107 -4.04013 3.69854 -11.078 -4.58719 3.44951 -11.1373 -5.18925 3.16319 
-11.2527 -5.85083 2.87005 -11.4634 -6.49148 2.52485 -11.7994 -7.07848 2.12484 
-12.2201 -7.67601 1.72993 -12.7129 -8.24939 1.31822 -13.2806 -8.68947 0.85388 
-12.0329 -3.40945 4.10753 -12.8917 -3.36742 4.37292 -13.8682 -3.39555 4.60512 
-15.0943 -3.49105 4.69498 -16.543 -3.68159 4.6721 -17.9859 -3.90923 4.59418 
-19.2528 -4.10119 4.39115 -20.3234 -4.30461 4.06109 -21.2365 -4.55401 3.70466 
-10.1211 -3.28827 3.66115 -8.93823 -3.05108 3.36789 -7.76699 -2.82438 2.97702 
-6.61023 -2.67199 2.54758 -5.44124 -2.63765 2.17461 -4.36252 -2.67705 1.82635 
-3.4652 -2.7584 1.41424 -2.71794 -2.87963 0.939195 -2.1551 -2.98395 0.424982 
-10.7155 -2.82451 3.88923 -10.1512 -1.99106 3.86059 -9.59865 -1.07504 3.81218 
-9.20456 -0.134963 3.71103 -9.07688 0.821669 3.5128 -9.16253 1.75879 3.26072 
-9.39583 2.56303 3.00596 -9.80848 3.1567 2.71572 -10.3704 3.54043 2.36379 
-22.0485 -13.9504 0.356474 -21.468 -13.7621 0.380831 -20.8327 -13.4063 0.378036 
-20.1431 -12.8246 0.347505 -19.3621 -12.0484 0.377519 -18.4145 -11.1747 0.501382 
-17.2906 -10.3304 0.614338 -16.0898 -9.65886 0.622663 -14.9347 -9.22956 0.533261 
-22.7454 -13.3469 0.659558 -22.8907 -12.5363 1.00349 -23.0077 -11.6464 1.35566 
-23.0941 -10.7811 1.76961 -23.1309 -9.87853 2.22793 -23.0925 -8.79964 2.5601 
-22.953 -7.66308 2.7591 -22.7088 -6.63929 2.97831 -22.3905 -5.70364 3.21433 
-22.7222 -15.2505 -0.0533521 -22.8009 -16.6357 -0.459633 -22.7692 -18.1024 -0.918274 
-22.5596 -19.5742 -1.43308 -22.1796 -21.0717 -1.88935 -21.6818 -22.5165 -2.26434 
-21.0286 -23.7081 -2.74442 -20.2335 -24.5204 -3.4685 -19.5196 -24.8921 -4.33873 
-23.1833 -14.8047 0.13791 -23.8041 -15.5748 -0.0232169 -24.4493 -16.2733 -0.152481 
-25.176 -16.7858 -0.338499 -25.9791 -17.0409 -0.644236 -26.7312 -17.1031 -1.01921 
-27.3485 -17.092 -1.36374 -27.8531 -17.0269 -1.68424 -28.2297 -16.8751 -2.07234 
-15.1151 -8.19418 -2.92771 -14.7091 -8.22766 -2.71529 -14.2838 -8.2871 -2.45553 
-13.8647 -8.4145 -2.14921 -13.5778 -8.60749 -1.80117 -13.4775 -8.82239 -1.42608 
-13.4873 -8.99654 -0.993224 -13.5643 -9.06894 -0.50327 -13.7106 -9.04655 -0.0274647 
-17.2058 -9.70517 -3.08756 -18.5029 -11.8755 -3.40637 -19.1696 -14.2987 -4.04079 
-19.2357 -16.4349 -4.65846 -19.1542 -18.2789 -4.97152 -19.2468 -20.0911 -5.135 
-19.2488 -21.7416 -5.32765 -19.0154 -23.0703 -5.43949 -18.889 -24.1133 -5.36596 
-13.3066 -7.19044 -3.13673 -11.0451 -6.66006 -3.16777 -9.14648 -6.14154 -2.96928 
-7.5629 -5.48945 -2.6088 -6.04921 -5.03726 -2.27121 -4.63684 -4.76436 -1.97482 
-3.4623 -4.3759 -1.61907 -2.58077 -3.92615 -1.15067 -2.05 -3.49968 -0.61945 
-15.2897 -9.48143 0.0239372 -16.93 -10.6003 -0.41882 -18.4511 -12.7923 -1.0366 
-19.3047 -15.6329 -1.77941 -19.4292 -18.1542 -2.44303 -19.3263 -20.1318 -2.96106 
-19.2507 -21.8708 -3.41815 -19.0965 -23.3066 -3.90009 -18.9669 -24.2737 -4.48123 
-12.528 -8.64788 0.483775 -11.0945 -8.1957 0.553123 -9.54808 -7.69609 0.561823 
-7.98429 -7.3001 0.514878 -6.56774 -6.89545 0.471076 -5.2794 -6.29379 0.437869 
-4.05258 -5.54516 0.360969 -2.9944 -4.74625 0.22387 -2.25802 -3.89834 0.0545163 
-21.5864 -3.03835 -0.6007 -21.7741 -2.88914 -0.180762 -21.9475 -2.71203 0.338867 
-22.121 -2.59912 0.949329 -22.2751 -2.72829 1.56424 -22.3595 -3.09375 2.07999 
-22.3741 -3.5134 2.48618 -22.3377 -3.92912 2.84489 -22.2295 -4.37288 3.15484 
-22.3876 -4.14436 -1.11052 -23.4994 -5.07555 -1.36729 -24.6388 -5.93925 -1.68074 
-25.668 -7.10513 -2.00931 -26.6109 -8.99114 -2.37929 -27.5455 -11.273 -2.75204 
-28.2717 -13.2129 -2.96261 -28.5725 -14.6082 -2.92544 -28.5564 -15.701 -2.73903 
-20.5272 -2.11463 -0.669353 -19.5655 -1.0122 -0.39779 -18.5171 0.0830837 -0.0777579 
-17.4457 1.11195 0.28786 -16.3818 2.02059 0.61359 -15.2761 2.76953 0.928759 
-14.1346 3.27458 1.29011 -13.0309 3.53055 1.61087 -11.974 3.66649 1.82665 
-23.0972 -5.62168 2.94613 -24.2631 -6.55344 2.46824 -25.3374 -7.65311 1.93466 
-26.232 -8.89983 1.36572 -27.0464 -10.261 0.722978 -27.7675 -11.7415 -0.00306814 
-28.2281 -13.1927 -0.719309 -28.4127 -14.4555 -1.37843 -28.4556 -15.5873 -1.99181 
-21.1765 -3.70461 3.65358 -20.2193 -2.45831 3.90508 -19.0534 -1.13084 4.04868 
-17.6691 0.18448 4.00895 -16.215 1.39872 3.84177 -14.8736 2.32975 3.64397 
-13.7286 2.86411 3.35245 -12.7207 3.17795 2.91464 -11.7826 3.47091 2.42803 
-19.8271 -25.1653 -5.30715 -20.9384 -24.9679 -5.27077 -22.3733 -24.2008 -4.88026 
-23.9824 -23.2701 -4.30072 -25.4208 -22.4066 -3.8415 -26.481 -21.3804 -3.53632 
-27.3116 -20.1888 -3.26295 -27.9358 -19.0191 -3.00063 -28.2706 -17.842 -2.76277 
-1.86213 -2.02034 0.0250856 -2.15489 -0.924057 0.123312 -2.7785 0.0700206 0.176308 
-3.62728 0.970053 0.27721 -4.62737 1.88106 0.492749 -5.84596 2.6991 0.803391 
-7.21661 3.32142 1.16632 -8.55103 3.71914 1.50796 -9.79002 3.83939 1.77075 
-12.6136 -1.56714 -3.03273 -12.6528 -2.21509 -3.20814 -13.9807 -2.46802 -3.15209 
-12.7577 -2.96267 -3.34952 -14.1615 -3.19913 -3.32885 -15.5267 -3.55493 -3.25508 
-12.9049 -3.65964 -3.52019 -14.441 -3.97224 -3.47149 -15.9203 -4.43073 -3.38977 
-17.2942 -4.99619 -3.29064 -13.2707 -4.43319 -3.60979 -14.9347 -4.8505 -3.57315 
-16.5276 -5.46084 -3.48602 -17.9415 -6.15183 -3.42764 -19.1617 -6.81787 -3.42957 
-14.081 -5.52132 -3.46682 -15.7875 -6.07938 -3.52073 -17.3647 -6.79976 -3.55596 
-18.7148 -7.53669 -3.60631 -19.8398 -8.17834 -3.7104 -20.796 -8.68482 -3.83964 
-15.1992 -6.79449 -3.25563 -16.8474 -7.55828 -3.36871 -18.2499 -8.38762 -3.5859 
-19.4066 -9.11919 -3.83773 -20.3882 -9.67088 -4.08493 -21.2459 -10.067 -4.27644 
-21.9998 -10.3621 -4.40605 -16.2404 -7.99793 -3.17548 -17.7446 -8.96219 -3.33384 
-18.9143 -9.89906 -3.65434 -19.8295 -10.6466 -4.05302 -20.6628 -11.1785 -4.44073 
-21.4609 -11.5095 -4.72618 -22.1836 -11.7347 -4.86328 -22.8156 -11.9041 -4.91659 
-10.1822 -0.512014 -3.09556 -8.83799 -0.298656 -3.1752 -9.96858 -1.10474 -3.24017 
-7.41106 -0.256136 -3.10284 -8.517 -0.975374 -3.27326 -9.89722 -1.9047 -3.27651 
-5.8594 -0.456441 -2.89329 -6.96988 -1.03663 -3.15803 -8.37694 -1.84332 -3.25672 
-9.91376 -2.74428 -3.34913 -4.33053 -0.925391 -2.64209 -5.38623 -1.36904 -2.92713 
-6.8001 -1.97629 -3.13055 -8.41726 -2.76663 -3.29735 -9.97139 -3.51423 -3.48688 
-3.16836 -1.56965 -2.30511 -4.06032 -1.96888 -2.63281 -5.36035 -2.41359 -2.88748 
-6.98605 -3.00736 -3.13275 -8.58596 -3.68682 -3.36805 -10.2619 -4.36306 -3.49687 
-2.47019 -2.24534 -1.80006 -3.21582 -2.66759 -2.2301 -4.33137 -3.08348 -2.53434 
-5.8326 -3.51698 -2.81272 -7.42843 -4.04843 -3.09826 -9.01937 -4.67716 -3.32426 
-11.016 -5.36317 -3.37302 -2.11003 -2.89353 -1.19665 -2.75662 -3.32371 -1.7101 
-3.7408 -3.76913 -2.0961 -5.06933 -4.15598 -2.39615 -6.60032 -4.53225 -2.69201 
-8.13418 -5.09667 -3.0057 -9.88214 -5.72662 -3.23466 -12.1306 -6.36 -3.25456 
-2.5767 -4.39454 -0.454925 -3.51916 -5.31434 -0.321232 -3.3103 -4.87818 -1.0146 
-4.754 -6.19086 -0.230865 -4.42567 -5.83349 -0.920757 -4.37715 -5.31621 -1.50357 
-6.0662 -6.8671 -0.154566 -5.73522 -6.59043 -0.830734 -5.58364 -6.11185 -1.41031 
-5.69575 -5.56067 -1.86803 -7.46891 -7.30428 -0.0611485 -7.14039 -7.11524 -0.712248 
-6.97942 -6.76877 -1.31337 -7.01924 -6.33611 -1.81621 -7.24442 -5.90099 -2.23156 
[...]
POINT_DATA 1002
FIELD FieldData 4
_paraPhi 1 1002 double
6.2831853072 3.1415926536 6.2831853072 3.1415926536 4.7123889804 4.7123889804 1.5707963268 1.5707963268 3.6951670125 
5.7296109483 2.5880182947 0.5535743589 6.2831853072 6.2831853072 6.2831853072 6.2831853072 3.1415926536 3.1415926536 
3.1415926536 3.1415926536 3.1415926536 6.1053039672 5.898798347 5.6768734901 5.4599499503 5.2659633393 5.1032165617 
4.9713148346 4.8656852733 4.7809517865 0.17788134 0.38438696014 0.60631181711 0.82323535693 1.0172219679 1.1799687454 
1.3118704726 1.4175000338 1.5022335207 6.1892828907 6.1070320098 6.035312792 5.9728339911 5.9183214791 5.8706119594 
5.8286879411 5.7916808611 5.7588591896 0.093902416448 0.17615329733 0.2478725152 0.31035131605 0.36486382811 0.41257334776 
0.45449736604 0.4915044461 0.52432611754 3.3194739936 3.5259796137 3.7479044707 3.9648280105 4.1588146215 4.321561399 
4.4534631262 4.5590926874 4.6438261743 2.9637113136 2.7572056934 2.5352808365 2.3183572967 2.1243706857 1.9616239082 
1.829722181 1.7240926197 1.6393591329 3.23549507 3.3177459509 3.3894651688 3.4519439696 3.5064564817 3.5541660013 
3.5960900196 3.6330970997 3.6659187711 3.0476902371 2.9654393563 2.8937201384 2.8312413375 2.7767288255 2.7290193058 
2.6870952876 2.6500882075 2.617266536 6.2831853072 6.2831853072 6.2831853072 6.2831853072 3.1415926536 3.1415926536 
3.1415926536 3.1415926536 3.1415926536 6.1053039672 5.898798347 5.6768734901 5.4599499503 5.2659633393 5.1032165617 
4.9713148346 4.8656852733 4.7809517865 0.17788134 0.38438696014 0.60631181711 0.82323535693 1.0172219679 1.1799687454 
1.3118704726 1.4175000338 1.5022335207 6.1892828907 6.1070320098 6.035312792 5.9728339911 5.9183214791 5.8706119594 
5.8286879411 5.7916808611 5.7588591896 0.093902416448 0.17615329733 0.2478725152 0.31035131605 0.36486382811 0.41257334776 
0.45449736604 0.4915044461 0.52432611754 3.3194739936 3.5259796137 3.7479044707 3.9648280105 4.1588146215 4.321561399 
4.4534631262 4.5590926874 4.6438261743 2.9637113136 2.7572056934 2.5352808365 2.3183572967 2.1243706857 1.9616239082 
1.829722181 1.7240926197 1.6393591329 3.23549507 3.3177459509 3.3894651688 3.4519439696 3.5064564817 3.5541660013 
3.5960900196 3.6330970997 3.6659187711 3.0476902371 2.9654393563 2.8937201384 2.8312413375 2.7767288255 2.7290193058 
2.6870952876 2.6500882075 2.617266536 4.7123889804 4.7123889804 4.7123889804 4.7123889804 4.7123889804 4.7123889804 
4.7123889804 4.7123889804 4.7123889804 4.6087898617 4.4991390697 4.3857031936 4.2712800401 4.1588146215 4.0509635631 
3.94975894 3.8564636551 3.7716124825 4.8159880991 4.9256388911 5.0390747672 5.1534979207 5.2659633393 5.3738143976 
5.4750190208 5.5683143056 5.6531654782 4.6087898617 4.4991390697 4.3857031936 4.2712800401 4.1588146215 4.0509635631 
3.94975894 3.8564636551 3.7716124825 4.8159880991 4.9256388911 5.0390747672 5.1534979207 5.2659633393 5.3738143976 
5.4750190208 5.5683143056 5.6531654782 1.5707963268 1.5707963268 1.5707963268 1.5707963268 1.5707963268 1.5707963268 
1.5707963268 1.5707963268 1.5707963268 1.6743954455 1.7840462375 1.8974821136 2.0119052671 2.1243706857 2.232221744 
2.3334263672 2.426721652 2.5115728246 1.4671972081 1.3575464161 1.24411054 1.1296873865 1.0172219679 0.90937090954 
0.80816628637 0.71487100155 0.63001982895 1.6743954455 1.7840462375 1.8974821136 2.0119052671 2.1243706857 2.232221744 
2.3334263672 2.426721652 2.5115728246 1.4671972081 1.3575464161 1.24411054 1.1296873865 1.0172219679 0.90937090954 
0.80816628637 0.71487100155 0.63001982895 3.6007720849 3.4966939854 3.3839471039 3.2645756454 3.1415926536 3.0186096618 
2.8992382033 2.7864913217 2.6824132222 5.8240058758 5.9280839753 6.0408308569 6.1602023154 6.2831853072 0.12298299178 
0.2423544503 0.35510133185 0.45917943135 6.0560271438 5.7885595667 5.9702140275 5.5125918794 5.6029703303 5.7885595667 
5.2659633393 5.2659633393 5.2659633393 5.2659633393 5.0674903122 5.0120975802 4.9155579264 4.7123889804 4.1588146215 
4.9155579264 4.8353719722 4.7123889804 4.5092200343 4.1588146215 3.6362183941 4.8004512023 4.7123889804 4.5894059886 
4.4126803806 4.1588146215 3.8218076305 3.4545639333 4.7123889804 4.6243267584 4.5092200343 4.3572876485 4.1588146215 
3.9121860814 3.6362183941 3.368750817 6.0174235957 5.9434319871 5.8263323547 5.8809213739 5.7674481418 5.6279784266 
5.8278025282 5.718968232 5.5891129425 5.4372443565 5.7823484065 5.678536687 5.5575666702 5.4192596322 5.2659633393 
5.743164462 5.6444075337 5.5314983644 5.4046708639 5.2659633393 5.1195510325 5.7091357773 5.6152775188 5.5096229709 
5.3926039573 5.2659633393 5.1329233157 4.9978930058 5.6793730533 5.5901633916 5.4910209005 5.3824597928 5.2659633393 
5.1440684722 5.0201624502 4.8979782167 5.5683143056 5.4750190208 5.4750190208 5.3738143976 5.3738143976 5.3738143976 
5.2659633393 5.2659633393 5.2659633393 5.2659633393 5.1534979207 5.1534979207 5.1534979207 5.1534979207 5.1534979207 
5.0390747672 5.0390747672 5.0390747672 5.0390747672 5.0390747672 5.0390747672 4.9256388911 4.9256388911 4.9256388911 
4.9256388911 4.9256388911 4.9256388911 4.9256388911 4.8159880991 4.8159880991 4.8159880991 4.8159880991 4.8159880991 
4.8159880991 4.8159880991 4.8159880991 4.6087898617 4.6087898617 4.4991390697 4.6087898617 4.4991390697 4.3857031936 
4.6087898617 4.4991390697 4.3857031936 4.2712800401 4.6087898617 4.4991390697 4.3857031936 4.2712800401 4.1588146215 
4.6087898617 4.4991390697 4.3857031936 4.2712800401 4.1588146215 4.0509635631 4.6087898617 4.4991390697 4.3857031936 
4.2712800401 4.1588146215 4.0509635631 3.94975894 4.6087898617 4.4991390697 4.3857031936 4.2712800401 4.1588146215 
4.0509635631 3.94975894 3.8564636551 4.526799744 4.4046155105 4.426884955 4.2807094886 4.2918546451 4.3052269283 
4.1588146215 4.1588146215 4.1588146215 4.1588146215 4.042318168 4.0321740035 4.0201070968 4.0055183285 3.9875336042 
3.9337570603 3.9151549899 3.8932795963 3.8672112905 3.8356650183 3.7967995342 3.8346145692 3.809500442 3.7803704271 
3.7462412737 3.7058097288 3.657329819 3.5984456061 3.7454049075 3.7156421835 3.6816134988 3.6424295543 3.5969754326 
3.5438565869 3.4813459737 3.4073543651 3.5642842451 3.4524645613 3.5233842518 3.3320300872 3.403123212 3.4773852225 
3.20576226 3.2746326772 3.348015857 3.4255060145 3.0774230472 3.1415926536 3.2112816139 3.2864685043 3.3668817272 
2.95115522 3.00855263 3.0719036933 3.1415926536 3.2178377658 3.3005964304 2.8307207459 2.8800620952 2.9351694502 
2.9967168029 3.0653475414 3.1415926536 3.225752376 2.718901062 2.7598010554 2.8058000847 2.8576792927 2.91630358 
2.9825888767 3.0574329311 3.1415926536 3.5642842451 3.5233842518 3.4524645613 3.4773852225 3.403123212 3.3320300872 
3.4255060145 3.348015857 3.2746326772 3.20576226 3.3668817272 3.2864685043 3.2112816139 3.1415926536 3.0774230472 
3.3005964304 3.2178377658 3.1415926536 3.0719036933 3.00855263 2.95115522 3.225752376 3.1415926536 3.0653475414 
2.9967168029 2.9351694502 2.8800620952 2.8307207459 3.1415926536 3.0574329311 2.9825888767 2.91630358 2.8576792927 
2.8058000847 2.7598010554 2.718901062 4.526799744 4.426884955 4.4046155105 4.3052269283 4.2918546451 4.2807094886 
4.1588146215 4.1588146215 4.1588146215 4.1588146215 3.9875336042 4.0055183285 4.0201070968 4.0321740035 4.042318168 
3.7967995342 3.8356650183 3.8672112905 3.8932795963 3.9151549899 3.9337570603 3.5984456061 3.657329819 3.7058097288 
3.7462412737 3.7803704271 3.809500442 3.8346145692 3.4073543651 3.4813459737 3.5438565869 3.5969754326 3.6424295543 
3.6816134988 3.7156421835 3.7454049075 4.7123889804 4.8004512023 4.6243267584 4.9155579264 4.7123889804 4.5092200343 
5.0674903122 4.8353719722 4.5894059886 4.3572876485 5.2659633393 5.0120975802 4.7123889804 4.4126803806 4.1588146215 
5.5125918794 5.2659633393 4.9155579264 4.5092200343 4.1588146215 3.9121860814 5.7885595667 5.6029703303 5.2659633393 
4.7123889804 4.1588146215 3.8218076305 3.6362183941 6.0560271438 5.9702140275 5.7885595667 5.2659633393 4.1588146215 
3.6362183941 3.4545639333 3.368750817 0.22715816343 0.49462574053 0.3129712797 0.77059342779 0.68021497688 0.49462574053 
1.0172219679 1.0172219679 1.0172219679 1.0172219679 1.2156949949 1.271087727 1.3676273807 1.5707963268 2.1243706857 
1.3676273807 1.447813335 1.5707963268 1.7739652728 2.1243706857 2.6469669131 1.4827341049 1.5707963268 1.6937793186 
1.8705049266 2.1243706857 2.4613776767 2.8286213739 1.5707963268 1.6588585487 1.7739652728 1.9258976586 2.1243706857 
2.3709992258 2.6469669131 2.9144344902 1.7563855631 1.8785697967 1.8563003522 2.0024758186 1.9913306621 1.9779583789 
2.1243706857 2.1243706857 2.1243706857 2.1243706857 2.2408671392 2.2510113037 2.2630782103 2.2776669786 2.295651703 
2.3494282469 2.3680303173 2.3899057108 2.4159740166 2.4475202889 2.486385773 2.448570738 2.4736848652 2.5028148801 
2.5369440334 2.5773755784 2.6258554882 2.6847397011 2.5377803997 2.5675431237 2.6015718084 2.6407557529 2.6862098746 
2.7393287203 2.8018393335 2.8758309421 1.6743954455 1.6743954455 1.7840462375 1.6743954455 1.7840462375 1.8974821136 
1.6743954455 1.7840462375 1.8974821136 2.0119052671 1.6743954455 1.7840462375 1.8974821136 2.0119052671 2.1243706857 
1.6743954455 1.7840462375 1.8974821136 2.0119052671 2.1243706857 2.232221744 1.6743954455 1.7840462375 1.8974821136 
2.0119052671 2.1243706857 2.232221744 2.3334263672 1.6743954455 1.7840462375 1.8974821136 2.0119052671 2.1243706857 
2.232221744 2.3334263672 2.426721652 1.4671972081 1.3575464161 1.4671972081 1.24411054 1.3575464161 1.4671972081 
1.1296873865 1.24411054 1.3575464161 1.4671972081 1.0172219679 1.1296873865 1.24411054 1.3575464161 1.4671972081 
0.90937090954 1.0172219679 1.1296873865 1.24411054 1.3575464161 1.4671972081 0.80816628637 0.90937090954 1.0172219679 
1.1296873865 1.24411054 1.3575464161 1.4671972081 0.71487100155 0.80816628637 0.90937090954 1.0172219679 1.1296873865 
1.24411054 1.3575464161 1.4671972081 0.60381225391 0.57404952988 0.69302191562 0.54002084522 0.66790778838 0.79216440667 
0.50083690068 0.63877777351 0.77356233629 0.90072551443 0.45538277901 0.60464862014 0.75168694275 0.89058134991 1.0172219679 
0.40226393329 0.56421707518 0.72561863695 0.87851444325 1.0172219679 1.139116835 0.33975332011 0.51573716537 0.69407236469 
0.86392567495 1.0172219679 1.1502619915 1.2630228569 0.26576171152 0.45685295248 0.6552068806 0.84594095064 1.0172219679 
1.1636342747 1.2852923014 1.3852070904 0.22715816343 0.3129712797 0.49462574053 0.49462574053 0.68021497688 0.77059342779 
1.0172219679 1.0172219679 1.0172219679 1.0172219679 2.1243706857 1.5707963268 1.3676273807 1.271087727 1.2156949949 
2.6469669131 2.1243706857 1.7739652728 1.5707963268 1.447813335 1.3676273807 2.8286213739 2.4613776767 2.1243706857 
1.8705049266 1.6937793186 1.5707963268 1.4827341049 2.9144344902 2.6469669131 2.3709992258 2.1243706857 1.9258976586 
1.7739652728 1.6588585487 1.5707963268 1.7563855631 1.8563003522 1.8785697967 1.9779583789 1.9913306621 2.0024758186 
2.1243706857 2.1243706857 2.1243706857 2.1243706857 2.295651703 2.2776669786 2.2630782103 2.2510113037 2.2408671392 
2.486385773 2.4475202889 2.4159740166 2.3899057108 2.3680303173 2.3494282469 2.6847397011 2.6258554882 2.5773755784 
2.5369440334 2.5028148801 2.4736848652 2.448570738 2.8758309421 2.8018393335 2.7393287203 2.6862098746 2.6407557529 
2.6015718084 2.5675431237 2.5377803997 5.8604937156 5.901393709 5.9723133995 5.9473927383 6.0216547488 6.0927478736 
5.9992719463 6.0767621038 6.1501452836 6.2190157008 6.0578962336 6.1383094565 6.2134963469 0 0.064169606361 
6.1241815303 6.206940195 6.2831853072 0.069688960264 0.13304002361 0.19043743361 6.1990255847 0 0.07624511221 
0.14487585072 0.20642320337 0.26153055843 0.3108719077 0 0.084159722458 0.15900377685 0.22528907359 0.28391336087 
0.3357925689 0.38179159818 0.42269159155 5.8604937156 5.9723133995 5.901393709 6.0927478736 6.0216547488 5.9473927383 
6.2190157008 6.1501452836 6.0767621038 5.9992719463 0.064169606361 0 6.2134963469 6.1383094565 6.0578962336 
0.19043743361 0.13304002361 0.069688960264 6.2831853072 6.206940195 6.1241815303 0.3108719077 0.26153055843 0.20642320337 
0.14487585072 0.07624511221 6.2831853072 6.1990255847 0.42269159155 0.38179159818 0.3357925689 0.28391336087 0.22528907359 
0.15900377685 0.084159722458 0 5.6793730533 5.7091357773 5.5901633916 5.743164462 5.6152775188 5.4910209005 
5.7823484065 5.6444075337 5.5096229709 5.3824597928 5.8278025282 5.678536687 5.5314983644 5.3926039573 5.2659633393 
5.8809213739 5.718968232 5.5575666702 5.4046708639 5.2659633393 5.1440684722 5.9434319871 5.7674481418 5.5891129425 
5.4192596322 5.2659633393 5.1329233157 5.0201624502 6.0174235957 5.8263323547 5.6279784266 5.4372443565 5.2659633393 
5.1195510325 4.9978930058 4.8979782167 1.3852070904 1.2852923014 1.2630228569 1.1636342747 1.1502619915 1.139116835 
1.0172219679 1.0172219679 1.0172219679 1.0172219679 0.84594095064 0.86392567495 0.87851444325 0.89058134991 0.90072551443 
0.6552068806 0.69407236469 0.72561863695 0.75168694275 0.77356233629 0.79216440667 0.45685295248 0.51573716537 0.56421707518 
0.60464862014 0.63877777351 0.66790778838 0.69302191562 0.26576171152 0.33975332011 0.40226393329 0.45538277901 0.50083690068 
0.54002084522 0.57404952988 0.60381225391 
_paraPhiHalf 1 1002 double
0 3.1415926536 0 3.1415926536 1.5707963268 1.5707963268 1.5707963268 1.5707963268 2.5880182947 
0.5535743589 2.5880182947 0.5535743589 0 0 0 0 3.1415926536 3.1415926536 
3.1415926536 3.1415926536 3.1415926536 0.17788134 0.38438696014 0.60631181711 0.82323535693 1.0172219679 1.1799687454 
1.3118704726 1.4175000338 1.5022335207 0.17788134 0.38438696014 0.60631181711 0.82323535693 1.0172219679 1.1799687454 
1.3118704726 1.4175000338 1.5022335207 0.093902416448 0.17615329733 0.2478725152 0.31035131605 0.36486382811 0.41257334776 
0.45449736604 0.4915044461 0.52432611754 0.093902416448 0.17615329733 0.2478725152 0.31035131605 0.36486382811 0.41257334776 
0.45449736604 0.4915044461 0.52432611754 2.9637113136 2.7572056934 2.5352808365 2.3183572967 2.1243706857 1.9616239082 
1.829722181 1.7240926197 1.6393591329 2.9637113136 2.7572056934 2.5352808365 2.3183572967 2.1243706857 1.9616239082 
1.829722181 1.7240926197 1.6393591329 3.0476902371 2.9654393563 2.8937201384 2.8312413375 2.7767288255 2.7290193058 
2.6870952876 2.6500882075 2.617266536 3.0476902371 2.9654393563 2.8937201384 2.8312413375 2.7767288255 2.7290193058 
2.6870952876 2.6500882075 2.617266536 0 0 0 0 3.1415926536 3.1415926536 
3.1415926536 3.1415926536 3.1415926536 0.17788134 0.38438696014 0.60631181711 0.82323535693 1.0172219679 1.1799687454 
1.3118704726 1.4175000338 1.5022335207 0.17788134 0.38438696014 0.60631181711 0.82323535693 1.0172219679 1.1799687454 
1.3118704726 1.4175000338 1.5022335207 0.093902416448 0.17615329733 0.2478725152 0.31035131605 0.36486382811 0.41257334776 
0.45449736604 0.4915044461 0.52432611754 0.093902416448 0.17615329733 0.2478725152 0.31035131605 0.36486382811 0.41257334776 
0.45449736604 0.4915044461 0.52432611754 2.9637113136 2.7572056934 2.5352808365 2.3183572967 2.1243706857 1.9616239082 
1.829722181 1.7240926197 1.6393591329 2.9637113136 2.7572056934 2.5352808365 2.3183572967 2.1243706857 1.9616239082 
1.829722181 1.7240926197 1.6393591329 3.0476902371 2.9654393563 2.8937201384 2.8312413375 2.7767288255 2.7290193058 
2.6870952876 2.6500882075 2.617266536 3.0476902371 2.9654393563 2.8937201384 2.8312413375 2.7767288255 2.7290193058 
2.6870952876 2.6500882075 2.617266536 1.5707963268 1.5707963268 1.5707963268 1.5707963268 1.5707963268 1.5707963268 
1.5707963268 1.5707963268 1.5707963268 1.6743954455 1.7840462375 1.8974821136 2.0119052671 2.1243706857 2.232221744 
2.3334263672 2.426721652 2.5115728246 1.4671972081 1.3575464161 1.24411054 1.1296873865 1.0172219679 0.90937090954 
0.80816628637 0.71487100155 0.63001982895 1.6743954455 1.7840462375 1.8974821136 2.0119052671 2.1243706857 2.232221744 
2.3334263672 2.426721652 2.5115728246 1.4671972081 1.3575464161 1.24411054 1.1296873865 1.0172219679 0.90937090954 
0.80816628637 0.71487100155 0.63001982895 1.5707963268 1.5707963268 1.5707963268 1.5707963268 1.5707963268 1.5707963268 
1.5707963268 1.5707963268 1.5707963268 1.6743954455 1.7840462375 1.8974821136 2.0119052671 2.1243706857 2.232221744 
2.3334263672 2.426721652 2.5115728246 1.4671972081 1.3575464161 1.24411054 1.1296873865 1.0172219679 0.90937090954 
0.80816628637 0.71487100155 0.63001982895 1.6743954455 1.7840462375 1.8974821136 2.0119052671 2.1243706857 2.232221744 
2.3334263672 2.426721652 2.5115728246 1.4671972081 1.3575464161 1.24411054 1.1296873865 1.0172219679 0.90937090954 
0.80816628637 0.71487100155 0.63001982895 2.6824132222 2.7864913217 2.8992382033 3.0186096618 3.1415926536 3.0186096618 
2.8992382033 2.7864913217 2.6824132222 0.45917943135 0.35510133185 0.2423544503 0.12298299178 0 0.12298299178 
0.2423544503 0.35510133185 0.45917943135 0.22715816343 0.49462574053 0.3129712797 0.77059342779 0.68021497688 0.49462574053 
1.0172219679 1.0172219679 1.0172219679 1.0172219679 1.2156949949 1.271087727 1.3676273807 1.5707963268 2.1243706857 
1.3676273807 1.447813335 1.5707963268 1.7739652728 2.1243706857 2.6469669131 1.4827341049 1.5707963268 1.6937793186 
1.8705049266 2.1243706857 2.4613776767 2.8286213739 1.5707963268 1.6588585487 1.7739652728 1.9258976586 2.1243706857 
2.3709992258 2.6469669131 2.9144344902 0.26576171152 0.33975332011 0.45685295248 0.40226393329 0.51573716537 0.6552068806 
0.45538277901 0.56421707518 0.69407236469 0.84594095064 0.50083690068 0.60464862014 0.72561863695 0.86392567495 1.0172219679 
0.54002084522 0.63877777351 0.75168694275 0.87851444325 1.0172219679 1.1636342747 0.57404952988 0.66790778838 0.77356233629 
0.89058134991 1.0172219679 1.1502619915 1.2852923014 0.60381225391 0.69302191562 0.79216440667 0.90072551443 1.0172219679 
1.139116835 1.2630228569 1.3852070904 0.71487100155 0.80816628637 0.80816628637 0.90937090954 0.90937090954 0.90937090954 
1.0172219679 1.0172219679 1.0172219679 1.0172219679 1.1296873865 1.1296873865 1.1296873865 1.1296873865 1.1296873865 
1.24411054 1.24411054 1.24411054 1.24411054 1.24411054 1.24411054 1.3575464161 1.3575464161 1.3575464161 
1.3575464161 1.3575464161 1.3575464161 1.3575464161 1.4671972081 1.4671972081 1.4671972081 1.4671972081 1.4671972081 
1.4671972081 1.4671972081 1.4671972081 1.6743954455 1.6743954455 1.7840462375 1.6743954455 1.7840462375 1.8974821136 
1.6743954455 1.7840462375 1.8974821136 2.0119052671 1.6743954455 1.7840462375 1.8974821136 2.0119052671 2.1243706857 
1.6743954455 1.7840462375 1.8974821136 2.0119052671 2.1243706857 2.232221744 1.6743954455 1.7840462375 1.8974821136 
2.0119052671 2.1243706857 2.232221744 2.3334263672 1.6743954455 1.7840462375 1.8974821136 2.0119052671 2.1243706857 
2.232221744 2.3334263672 2.426721652 1.7563855631 1.8785697967 1.8563003522 2.0024758186 1.9913306621 1.9779583789 
2.1243706857 2.1243706857 2.1243706857 2.1243706857 2.2408671392 2.2510113037 2.2630782103 2.2776669786 2.295651703 
2.3494282469 2.3680303173 2.3899057108 2.4159740166 2.4475202889 2.486385773 2.448570738 2.4736848652 2.5028148801 
2.5369440334 2.5773755784 2.6258554882 2.6847397011 2.5377803997 2.5675431237 2.6015718084 2.6407557529 2.6862098746 
2.7393287203 2.8018393335 2.8758309421 2.718901062 2.8307207459 2.7598010554 2.95115522 2.8800620952 2.8058000847 
3.0774230472 3.00855263 2.9351694502 2.8576792927 3.0774230472 3.1415926536 3.0719036933 2.9967168029 2.91630358 
2.95115522 3.00855263 3.0719036933 3.1415926536 3.0653475414 2.9825888767 2.8307207459 2.8800620952 2.9351694502 
2.9967168029 3.0653475414 3.1415926536 3.0574329311 2.718901062 2.7598010554 2.8058000847 2.8576792927 2.91630358 
2.9825888767 3.0574329311 3.1415926536 2.718901062 2.7598010554 2.8307207459 2.8058000847 2.8800620952 2.95115522 
2.8576792927 2.9351694502 3.00855263 3.0774230472 2.91630358 2.9967168029 3.0719036933 3.1415926536 3.0774230472 
2.9825888767 3.0653475414 3.1415926536 3.0719036933 3.00855263 2.95115522 3.0574329311 3.1415926536 3.0653475414 