# vtk DataFile Version 5.1
vtk output
ASCII
DATASET POLYDATA
POINTS 1002 float
-10.3695 -0.947845 -1.22754 -16.4693 -17.0726 -2.60963 -8.09248 -3.15868 4.72744 
-14.2251 -17.3959 2.36067 -10.8065 -8.59496 -1.63038 -9.28984 -9.07528 1.49441 
-17.8217 -7.07248 1.2457 -17.0534 -8.52704 5.14784 -8.49732 -25.6222 -3.13003 
-0.726137 0.203851 0.319267 -18.5315 -21.8162 0.344972 -10.8406 2.84527 3.52279 
-11.0604 -1.87114 -1.25555 -11.8767 -2.98285 -1.27374 -12.7984 -4.27805 -1.2928 
-13.7608 -5.87046 -1.29374 -14.69 -7.81154 -1.33255 -15.4874 -9.91288 -1.50538 
-16.0642 -12.0037 -1.77969 -16.41 -13.9832 -2.08209 -16.5412 -15.6924 -2.37735 
-10.0476 -1.2568 -1.47371 -9.70091 -1.70116 -1.6685 -9.39584 -2.23633 -1.86813 
-9.22444 -2.84959 -2.1158 -9.23594 -3.66791 -2.28582 -9.39408 -4.71734 -2.27899 
-9.60748 -5.78122 -2.19199 -9.87963 -6.72691 -2.07623 -10.291 -7.63708 -1.87982 
-11.0892 -1.26218 -0.962061 -11.8935 -1.66847 -0.684641 -12.8086 -2.13537 -0.434118 
-13.7376 -2.66496 -0.172672 -14.5858 -3.28619 0.127511 -15.3824 -4.00146 0.40932 
-16.131 -4.78763 0.64521 -16.7842 -5.59846 0.864425 -17.3416 -6.37044 1.06985 
-9.47785 -0.297963 -1.33703 -8.4306 0.312516 -1.41184 -7.24069 0.895343 -1.44472 
-5.951 1.38778 -1.43235 -4.58574 1.66498 -1.39278 -3.24789 1.70465 -1.30783 
-2.15023 1.55627 -1.07058 -1.39555 1.22983 -0.642788 -0.934935 0.753364 -0.139314 
-10.1829 -0.297046 -1.00539 -10.0442 0.360978 -0.735928 -9.97621 1.03521 -0.438306 
-9.99777 1.64557 -0.0680836 -10.0796 2.14641 0.419853 -10.1919 2.57466 0.959492 
-10.3703 2.8874 1.51499 -10.5939 3.01774 2.16195 -10.7613 2.98967 2.87976 
-16.0825 -16.9227 -2.70868 -15.6259 -16.6344 -2.77091 -15.0909 -16.1811 -2.79257 
-14.5608 -15.5868 -2.71098 -14.1042 -14.8709 -2.52248 -13.6251 -13.9399 -2.30497 
-13.0583 -12.6722 -2.05334 -12.4414 -11.1638 -1.7783 -11.713 -9.72101 -1.6161 
-16.9172 -16.3193 -2.32943 -17.3124 -15.3814 -1.96945 -17.6164 -14.2862 -1.57677 
-17.8395 -13.1376 -1.18672 -18.0114 -12.0142 -0.77058 -18.0992 -10.9081 -0.324098 
-18.0871 -9.81552 0.100262 -18.0266 -8.78698 0.487701 -17.9413 -7.86977 0.866259 
-15.9655 -18.2926 -2.84229 -15.2149 -19.6315 -3.01855 -14.3103 -21.0794 -3.23749 
-13.429 -22.4456 -3.59063 -12.5996 -23.5549 -3.95794 -11.6702 -24.4646 -4.21411 
-10.5997 -25.2191 -4.35969 -9.56853 -25.6745 -4.26547 -8.82096 -25.7665 -3.80621 
-16.5728 -17.9152 -2.60226 -16.6562 -18.8358 -2.53089 -16.7496 -19.8096 -2.43398 
-16.898 -20.6531 -2.26586 -17.1457 -21.2415 -1.97606 -17.465 -21.6352 -1.63648 
-17.811 -21.9138 -1.26597 -18.1526 -22.0684 -0.78339 -18.4116 -22.0408 -0.210093 
-8.8168 -4.06201 4.80034 -9.57344 -5.1546 4.91046 -10.382 -6.42096 4.97505 
-11.3119 -7.77774 4.80585 -12.3037 -9.24127 4.42018 -13.1589 -10.87 3.97107 
-13.7565 -12.592 3.47839 -14.1016 -14.2988 2.99433 -14.2363 -15.9229 2.62739 
-7.84508 -3.58855 4.49451 -7.6639 -4.09264 4.23048 -7.5855 -4.66906 3.94917 
-7.54234 -5.27929 3.62849 -7.54611 -5.91522 3.26466 -7.70583 -6.60298 2.91293 
-7.99468 -7.3105 2.57802 -8.34429 -7.96266 2.21955 -8.77999 -8.53618 1.84882 
-8.77603 -3.30535 4.99564 -9.4403 -3.53146 5.30434 -10.186 -3.85928 5.61706 
-11.2059 -4.34254 5.80331 -12.4625 -5.02828 5.82176 -13.7189 -5.84916 5.80819 
-14.8304 -6.64788 5.80081 -15.7502 -7.34121 5.68367 -16.4743 -7.95448 5.43616 
-7.2036 -2.57636 4.49007 -6.31031 -1.99026 4.14369 -5.46421 -1.43306 3.69749 
-4.55567 -0.939074 3.22958 -3.56356 -0.506188 2.78021 -2.68066 -0.160856 2.3336 
-1.95201 0.0660717 1.87311 -1.30705 0.191872 1.38372 -0.857104 0.231508 0.857882 
-7.82398 -2.34382 4.79422 -7.61627 -1.41441 4.79053 -7.5577 -0.431875 4.73391 
-7.68319 0.485389 4.67284 -7.97392 1.28025 4.56586 -8.42671 1.95998 4.39626 
-9.01777 2.49407 4.2589 -9.6701 2.81869 4.13533 -10.2994 2.91818 3.89625 
-13.8978 -17.0147 2.25555 -13.5517 -16.4853 2.16229 -13.1927 -15.7826 2.07256 
-12.8473 -14.9073 1.97684 -12.4523 -13.9095 1.91689 -11.9247 -12.8452 1.92424 
-11.3131 -11.7483 1.93283 -10.6729 -10.691 1.86445 -9.99264 -9.78116 1.70946 
-14.605 -16.8074 2.63504 -15.0043 -16.1134 2.94861 -15.3994 -15.3457 3.2956 
-15.7938 -14.5288 3.65814 -16.1814 -13.6302 4.02807 -16.5132 -12.6483 4.37377 
-16.7685 -11.6452 4.64289 -16.9529 -10.6291 4.83878 -17.0478 -9.57662 5.00524 
-13.923 -18.6266 2.00539 -13.5438 -19.9359 1.54098 -13.0381 -21.2823 1.04038 
-12.3246 -22.5885 0.593687 -11.5014 -23.784 0.0984914 -10.7296 -24.8066 -0.5133 
-9.94528 -25.5234 -1.11456 -9.14985 -25.8435 -1.71446 -8.61007 -25.8372 -2.41742 
-14.409 -18.4396 2.26989 -14.663 -19.4376 2.15673 -15.0161 -20.3353 2.02295 
-15.4727 -21.094 1.90159 -16.0579 -21.6789 1.80706 -16.7412 -22.0595 1.67156 
-17.3711 -22.2404 1.417 -17.8533 -22.2519 1.0682 -18.2279 -22.107 0.698861 
-10.5031 -8.62891 -1.5214 -10.1461 -8.66248 -1.39621 -9.78887 -8.69872 -1.23631 
-9.50767 -8.77098 -0.998973 -9.28472 -8.86983 -0.665764 -9.10825 -8.94183 -0.265991 
-9.04337 -8.98542 0.183752 -9.09121 -9.021 0.662358 -9.18507 -9.04666 1.10985 
-11.8281 -10.5006 -1.43785 -12.3425 -12.972 -1.594 -12.0962 -15.4679 -2.1189 
-11.3803 -17.513 -2.69629 -10.7116 -19.2563 -3.01472 -10.2252 -20.9596 -3.13517 
-9.748 -22.4952 -3.27676 -9.19888 -23.7558 -3.42181 -8.70948 -24.8021 -3.39299 
-9.33158 -7.26525 -1.91953 -7.77927 -6.25213 -2.12269 -6.4837 -5.22099 -2.02004 
-5.31147 -4.1508 -1.7549 -3.98954 -3.32309 -1.57121 -2.74038 -2.65302 -1.39484 
-1.85591 -1.91581 -1.06998 -1.24601 -1.1658 -0.624207 -0.839357 -0.462754 -0.142389 
-10.2582 -10.2065 1.24227 -11.0924 -11.9711 0.879331 -11.512 -14.4229 0.432772 
-11.3611 -17.0245 -0.0709171 -10.7645 -19.1907 -0.618102 -10.075 -20.9837 -1.16112 
-9.51858 -22.5986 -1.65568 -9.02956 -23.9166 -2.12977 -8.61491 -24.8908 -2.62992 
-8.19723 -8.19052 1.42834 -7.02963 -7.3594 1.31802 -5.86259 -6.4953 1.21916 
-4.68885 -5.60073 1.12753 -3.51204 -4.72172 1.03396 -2.45391 -3.8452 0.93503 
-1.62766 -2.91588 0.793217 -1.04924 -1.89422 0.619915 -0.741624 -0.816584 0.463323 
-18.0056 -7.01503 1.60049 -18.1661 -6.94324 2.01539 -18.2882 -6.91237 2.52231 
-18.3322 -6.99848 3.11074 -18.2419 -7.19676 3.66717 -18.0377 -7.41164 4.09826 
-17.8075 -7.61729 4.45222 -17.5852 -7.88215 4.77228 -17.3415 -8.21047 5.01066 
-18.3625 -8.30092 1.16502 -18.9288 -9.69635 1.0656 -19.4961 -11.1266 0.922994 
-19.9584 -12.6479 0.692349 -20.1863 -14.5922 0.382601 -20.162 -16.8156 0.138028 
-19.9348 -18.6273 0.0986565 -19.5373 -19.8558 0.200628 -19.0369 -20.8703 0.29669 
-17.3713 -5.8918 1.53842 -16.8617 -4.63258 1.82858 -16.3074 -3.27907 2.06742 
-15.6635 -1.94898 2.27838 -14.9324 -0.764286 2.52267 -14.1952 0.292569 2.795 
-13.4323 1.189 3.045 -12.5829 1.8641 3.24586 -11.696 2.39215 3.40218 
-17.6458 -9.81422 4.79526 -18.3183 -11.27 4.46151 -18.9515 -12.8116 4.08663 
-19.4106 -14.3758 3.62571 -19.659 -15.9479 3.09897 -19.6782 -17.4323 2.51065 
-19.4824 -18.7001 1.904 -19.1844 -19.8117 1.3523 -18.8688 -20.8712 0.845449 
-16.681 -7.10399 5.44853 -16.2519 -5.57933 5.68862 -15.7087 -3.96586 5.79029 
-15.0333 -2.35185 5.77654 -14.3125 -0.922791 5.65031 -13.6153 0.196815 5.33864 
-12.8993 1.04873 4.89618 -12.1522 1.74362 4.45062 -11.4495 2.34257 4.00652 
-8.82942 -26.3397 -3.12411 -9.82625 -26.7007 -2.92243 -11.2873 -26.6384 -2.50945 
-12.7487 -26.3942 -1.97807 -14.0119 -26.0006 -1.46381 -15.2011 -25.2733 -1.0153 
-16.329 -24.4366 -0.627175 -17.2601 -23.6962 -0.286526 -17.9665 -22.8486 0.0380611 
-0.998883 1.19628 0.500725 -1.59954 2.08826 0.687223 -2.41255 2.76802 0.89064 
-3.3725 3.31434 1.12938 -4.58222 3.76855 1.45401 -6.05267 4.00447 1.91766 
-7.5518 3.99472 2.44558 -8.85444 3.7811 2.89869 -9.92517 3.36876 3.24585 
-10.8124 -2.29201 -1.49258 -10.5337 -2.81788 -1.68198 -11.7191 -3.50718 -1.50065 
-10.3169 -3.40192 -1.88765 -11.5517 -4.09184 -1.68027 -12.7663 -4.94776 -1.49202 
-10.307 -4.14312 -2.09852 -11.4736 -4.79187 -1.83634 -12.7804 -5.73833 -1.64168 
-13.8741 -6.80639 -1.48504 -10.5323 -5.16156 -2.16951 -11.599 -5.78933 -1.92223 
-12.8417 -6.8015 -1.72329 -14.0195 -7.9959 -1.65265 -14.8481 -9.03953 -1.58332 
-10.8315 -6.31626 -2.08645 -11.8886 -7.06473 -1.90527 -12.964 -8.17907 -1.74772 
-14.0602 -9.47755 -1.76335 -14.9103 -10.5432 -1.82614 -15.5204 -11.33 -1.8074 
-11.0837 -7.43697 -1.95643 -12.1528 -8.42869 -1.865 -13.1124 -9.69224 -1.8099 
-14.0103 -11.0424 -1.88613 -14.768 -12.1404 -2.04784 -15.3772 -12.8932 -2.11239 
-15.9175 -13.4825 -2.09599 -11.3629 -8.55727 -1.79668 -12.3164 -9.80993 -1.83027 
-13.1583 -11.2215 -1.93661 -13.8921 -12.5369 -2.08658 -14.4939 -13.581 -2.28924 
-15.0447 -14.3427 -2.43083 -15.5996 -14.9224 -2.44748 -16.1094 -15.3773 -2.42145 
-9.03734 -0.613727 -1.57942 -7.88025 -0.0241819 -1.64728 -8.61635 -1.0674 -1.78861 
-6.58843 0.492996 -1.66195 -7.3858 -0.491139 -1.88394 -8.27393 -1.6046 -2.03186 
-5.1886 0.857249 -1.62872 -5.98248 -0.0719749 -1.89677 -6.92234 -1.04578 -2.12991 
-8.02141 -2.26147 -2.25183 -3.76992 0.994811 -1.56918 -4.51122 0.100559 -1.82447 
-5.41779 -0.777212 -2.09618 -6.53391 -1.79257 -2.25042 -7.92059 -3.20873 -2.30739 
-2.54418 0.902104 -1.4173 -3.19749 0.0533392 -1.69014 -4.08066 -0.855065 -1.96525 
-5.14632 -1.71415 -2.15176 -6.46381 -2.89214 -2.23344 -8.0324 -4.38707 -2.27511 
-1.67521 0.585362 -1.08359 -2.22131 -0.191707 -1.44423 -3.05918 -1.11407 -1.75569 
-4.1599 -1.97401 -1.983 -5.39038 -2.90314 -2.11936 -6.75521 -4.17236 -2.24566 
-8.30987 -5.49638 -2.26303 -1.13252 0.0938314 -0.619821 -1.59962 -0.632049 -1.06888 
-2.31903 -1.47494 -1.45134 -3.38311 -2.31357 -1.71893 -4.67584 -3.10583 -1.88749 
-5.92254 -4.12763 -2.08939 -7.21577 -5.31872 -2.25768 -8.74063 -6.42227 -2.16665 
-0.989624 -1.54125 -0.0134342 -1.42333 -2.6287 0.14767 -1.52741 -2.27772 -0.519718 
-2.14122 -3.631 0.332245 -2.09837 -3.32472 -0.368579 -2.27393 -2.97659 -0.969078 
-3.11991 -4.55041 0.48196 -2.97702 -4.26482 -0.198472 -3.02642 -3.91101 -0.823167 
-3.36558 -3.57677 -1.24615 -4.25357 -5.46843 0.601476 -4.03324 -5.23942 -0.0425387 
-4.03602 -4.90723 -0.681511 -4.27384 -4.5509 -1.11036 -4.75962 -4.29329 -1.41189 
[...]
POINT_DATA 1002
FIELD FieldData 4
_paraPhi 1 1002 double
6.2831853072 3.1415926536 6.2831853072 3.1415926536 4.7123889804 4.7123889804 1.5707963268 1.5707963268 3.6951670125 
5.7296109483 2.5880182947 0.5535743589 6.2831853072 6.2831853072 6.2831853072 6.2831853072 3.1415926536 3.1415926536 
3.1415926536 3.1415926536 3.1415926536 6.1053039672 5.898798347 5.6768734901 5.4599499503 5.2659633393 5.1032165617 
4.9713148346 4.8656852733 4.7809517865 0.17788134 0.38438696014 0.60631181711 0.82323535693 1.0172219679 1.1799687454 
1.3118704726 1.4175000338 1.5022335207 6.1892828907 6.1070320098 6.035312792 5.9728339911 5.9183214791 5.8706119594 
5.8286879411 5.7916808611 5.7588591896 0.093902416448 0.17615329733 0.2478725152 0.31035131605 0.36486382811 0.41257334776 
0.45449736604 0.4915044461 0.52432611754 3.3194739936 3.5259796137 3.7479044707 3.9648280105 4.1588146215 4.321561399 
4.4534631262 4.5590926874 4.6438261743 2.9637113136 2.7572056934 2.5352808365 2.3183572967 2.1243706857 1.9616239082 
1.829722181 1.7240926197 1.6393591329 3.23549507 3.3177459509 3.3894651688 3.4519439696 3.5064564817 3.5541660013 
3.5960900196 3.6330970997 3.6659187711 3.0476902371 2.9654393563 2.8937201384 2.8312413375 2.7767288255 2.7290193058 
2.6870952876 2.6500882075 2.617266536 6.2831853072 6.2831853072 6.2831853072 6.2831853072 3.1415926536 3.1415926536 
3.1415926536 3.1415926536 3.1415926536 6.1053039672 5.898798347 5.6768734901 5.4599499503 5.2659633393 5.1032165617 
4.9713148346 4.8656852733 4.7809517865 0.17788134 0.38438696014 0.60631181711 0.82323535693 1.0172219679 1.1799687454 
1.3118704726 1.4175000338 1.5022335207 6.1892828907 6.1070320098 6.035312792 5.9728339911 5.9183214791 5.8706119594 
5.8286879411 5.7916808611 5.7588591896 0.093902416448 0.17615329733 0.2478725152 0.31035131605 0.36486382811 0.41257334776 
0.45449736604 0.4915044461 0.52432611754 3.3194739936 3.5259796137 3.7479044707 3.9648280105 4.1588146215 4.321561399 
4.4534631262 4.5590926874 4.6438261743 2.9637113136 2.7572056934 2.5352808365 2.3183572967 2.1243706857 1.9616239082 
1.829722181 1.7240926197 1.6393591329 3.23549507 3.3177459509 3.3894651688 3.4519439696 3.5064564817 3.5541660013 
3.5960900196 3.6330970997 3.6659187711 3.0476902371 2.9654393563 2.8937201384 2.8312413375 2.7767288255 2.7290193058 
2.6870952876 2.6500882075 2.617266536 4.7123889804 4.7123889804 4.7123889804 4.7123889804 4.7123889804 4.7123889804 
4.7123889804 4.7123889804 4.7123889804 4.6087898617 4.4991390697 4.3857031936 4.2712800401 4.1588146215 4.0509635631 
3.94975894 3.8564636551 3.7716124825 4.8159880991 4.9256388911 5.0390747672 5.1534979207 5.2659633393 5.3738143976 
5.4750190208 5.5683143056 5.6531654782 4.6087898617 4.4991390697 4.3857031936 4.2712800401 4.1588146215 4.0509635631 
3.94975894 3.8564636551 3.7716124825 4.8159880991 4.9256388911 5.0390747672 5.1534979207 5.2659633393 5.3738143976 
5.4750190208 5.5683143056 5.6531654782 1.5707963268 1.5707963268 1.5707963268 1.5707963268 1.5707963268 1.5707963268 
1.5707963268 1.5707963268 1.5707963268 1.6743954455 1.7840462375 1.8974821136 2.0119052671 2.1243706857 2.232221744 
2.3334263672 2.426721652 2.5115728246 1.4671972081 1.3575464161 1.24411054 1.1296873865 1.0172219679 0.90937090954 
0.80816628637 0.71487100155 0.63001982895 1.6743954455 1.7840462375 1.8974821136 2.0119052671 2.1243706857 2.232221744 
2.3334263672 2.426721652 2.5115728246 1.4671972081 1.3575464161 1.24411054 1.1296873865 1.0172219679 0.90937090954 
0.80816628637 0.71487100155 0.63001982895 3.6007720849 3.4966939854 3.3839471039 3.2645756454 3.1415926536 3.0186096618 
2.8992382033 2.7864913217 2.6824132222 5.8240058758 5.9280839753 6.0408308569 6.1602023154 6.2831853072 0.12298299178 
0.2423544503 0.35510133185 0.45917943135 6.0560271438 5.7885595667 5.9702140275 5.5125918794 5.6029703303 5.7885595667 
5.2659633393 5.2659633393 5.2659633393 5.2659633393 5.0674903122 5.0120975802 4.9155579264 4.7123889804 4.1588146215 
4.9155579264 4.8353719722 4.7123889804 4.5092200343 4.1588146215 3.6362183941 4.8004512023 4.7123889804 4.5894059886 
4.4126803806 4.1588146215 3.8218076305 3.4545639333 4.7123889804 4.6243267584 4.5092200343 4.3572876485 4.1588146215 
3.9121860814 3.6362183941 3.368750817 6.0174235957 5.9434319871 5.8263323547 5.8809213739 5.7674481418 5.6279784266 
5.8278025282 5.718968232 5.5891129425 5.4372443565 5.7823484065 5.678536687 5.5575666702 5.4192596322 5.2659633393 
5.743164462 5.6444075337 5.5314983644 5.4046708639 5.2659633393 5.1195510325 5.7091357773 5.6152775188 5.5096229709 
5.3926039573 5.2659633393 5.1329233157 4.9978930058 5.6793730533 5.5901633916 5.4910209005 5.3824597928 5.2659633393 
5.1440684722 5.0201624502 4.8979782167 5.5683143056 5.4750190208 5.4750190208 5.3738143976 5.3738143976 5.3738143976 
5.2659633393 5.2659633393 5.2659633393 5.2659633393 5.1534979207 5.1534979207 5.1534979207 5.1534979207 5.1534979207 
5.0390747672 5.0390747672 5.0390747672 5.0390747672 5.0390747672 5.0390747672 4.9256388911 4.9256388911 4.9256388911 
4.9256388911 4.9256388911 4.9256388911 4.9256388911 4.8159880991 4.8159880991 4.8159880991 4.8159880991 4.8159880991 
4.8159880991 4.8159880991 4.8159880991 4.6087898617 4.6087898617 4.4991390697 4.6087898617 4.4991390697 4.3857031936 
4.6087898617 4.4991390697 4.3857031936 4.2712800401 4.6087898617 4.4991390697 4.3857031936 4.2712800401 4.1588146215 
4.6087898617 4.4991390697 4.3857031936 4.2712800401 4.1588146215 4.0509635631 4.6087898617 4.4991390697 4.3857031936 
4.2712800401 4.1588146215 4.0509635631 3.94975894 4.6087898617 4.4991390697 4.3857031936 4.2712800401 4.1588146215 
4.0509635631 3.94975894 3.8564636551 4.526799744 4.4046155105 4.426884955 4.2807094886 4.2918546451 4.3052269283 
4.1588146215 4.1588146215 4.1588146215 4.1588146215 4.042318168 4.0321740035 4.0201070968 4.0055183285 3.9875336042 
3.9337570603 3.9151549899 3.8932795963 3.8672112905 3.8356650183 3.7967995342 3.8346145692 3.809500442 3.7803704271 
3.7462412737 3.7058097288 3.657329819 3.5984456061 3.7454049075 3.7156421835 3.6816134988 3.6424295543 3.5969754326 
3.5438565869 3.4813459737 3.4073543651 3.5642842451 3.4524645613 3.5233842518 3.3320300872 3.403123212 3.4773852225 
3.20576226 3.2746326772 3.348015857 3.4255060145 3.0774230472 3.1415926536 3.2112816139 3.2864685043 3.3668817272 
2.95115522 3.00855263 3.0719036933 3.1415926536 3.2178377658 3.3005964304 2.8307207459 2.8800620952 2.9351694502 
2.9967168029 3.0653475414 3.1415926536 3.225752376 2.718901062 2.7598010554 2.8058000847 2.8576792927 2.91630358 
2.9825888767 3.0574329311 3.1415926536 3.5642842451 3.5233842518 3.4524645613 3.4773852225 3.403123212 3.3320300872 
3.4255060145 3.348015857 3.2746326772 3.20576226 3.3668817272 3.2864685043 3.2112816139 3.1415926536 3.0774230472 
3.3005964304 3.2178377658 3.1415926536 3.0719036933 3.00855263 2.95115522 3.225752376 3.1415926536 3.0653475414 
2.9967168029 2.9351694502 2.8800620952 2.8307207459 3.1415926536 3.0574329311 2.9825888767 2.91630358 2.8576792927 
2.8058000847 2.7598010554 2.718901062 4.526799744 4.426884955 4.4046155105 4.3052269283 4.2918546451 4.2807094886 
4.1588146215 4.1588146215 4.1588146215 4.1588146215 3.9875336042 4.0055183285 4.0201070968 4.0321740035 4.042318168 
3.7967995342 3.8356650183 3.8672112905 3.8932795963 3.9151549899 3.9337570603 3.5984456061 3.657329819 3.7058097288 
3.7462412737 3.7803704271 3.809500442 3.8346145692 3.4073543651 3.4813459737 3.5438565869 3.5969754326 3.6424295543 
3.6816134988 3.7156421835 3.7454049075 4.7123889804 4.8004512023 4.6243267584 4.9155579264 4.7123889804 4.5092200343 
5.0674903122 4.8353719722 4.5894059886 4.3572876485 5.2659633393 5.0120975802 4.7123889804 4.4126803806 4.1588146215 
5.5125918794 5.2659633393 4.9155579264 4.5092200343 4.1588146215 3.9121860814 5.7885595667 5.6029703303 5.2659633393 
4.7123889804 4.1588146215 3.8218076305 3.6362183941 6.0560271438 5.9702140275 5.7885595667 5.2659633393 4.1588146215 
3.6362183941 3.4545639333 3.368750817 0.22715816343 0.49462574053 0.3129712797 0.77059342779 0.68021497688 0.49462574053 
1.0172219679 1.0172219679 1.0172219679 1.0172219679 1.2156949949 1.271087727 1.3676273807 1.5707963268 2.1243706857 
1.3676273807 1.447813335 1.5707963268 1.7739652728 2.1243706857 2.6469669131 1.4827341049 1.5707963268 1.6937793186 
1.8705049266 2.1243706857 2.4613776767 2.8286213739 1.5707963268 1.6588585487 1.7739652728 1.9258976586 2.1243706857 
2.3709992258 2.6469669131 2.9144344902 1.7563855631 1.8785697967 1.8563003522 2.0024758186 1.9913306621 1.9779583789 
2.1243706857 2.1243706857 2.1243706857 2.1243706857 2.2408671392 2.2510113037 2.2630782103 2.2776669786 2.295651703 
2.3494282469 2.3680303173 2.3899057108 2.4159740166 2.4475202889 2.486385773 2.448570738 2.4736848652 2.5028148801 
2.5369440334 2.5773755784 2.6258554882 2.6847397011 2.5377803997 2.5675431237 2.6015718084 2.6407557529 2.6862098746 
2.7393287203 2.8018393335 2.8758309421 1.6743954455 1.6743954455 1.7840462375 1.6743954455 1.7840462375 1.8974821136 
1.6743954455 1.7840462375 1.8974821136 2.0119052671 1.6743954455 1.7840462375 1.8974821136 2.0119052671 2.1243706857 
1.6743954455 1.7840462375 1.8974821136 2.0119052671 2.1243706857 2.232221744 1.6743954455 1.7840462375 1.8974821136 
2.0119052671 2.1243706857 2.232221744 2.3334263672 1.6743954455 1.7840462375 1.8974821136 2.0119052671 2.1243706857 
2.232221744 2.3334263672 2.426721652 1.4671972081 1.3575464161 1.4671972081 1.24411054 1.3575464161 1.4671972081 
1.1296873865 1.24411054 1.3575464161 1.4671972081 1.0172219679 1.1296873865 1.24411054 1.3575464161 1.4671972081 
0.90937090954 1.0172219679 1.1296873865 1.24411054 1.3575464161 1.4671972081 0.80816628637 0.90937090954 1.0172219679 
1.1296873865 1.24411054 1.3575464161 1.4671972081 0.71487100155 0.80816628637 0.90937090954 1.0172219679 1.1296873865 
1.24411054 1.3575464161 1.4671972081 0.60381225391 0.57404952988 0.69302191562 0.54002084522 0.66790778838 0.79216440667 
0.50083690068 0.63877777351 0.77356233629 0.90072551443 0.45538277901 0.60464862014 0.75168694275 0.89058134991 1.0172219679 
0.40226393329 0.56421707518 0.72561863695 0.87851444325 1.0172219679 1.139116835 0.33975332011 0.51573716537 0.69407236469 
0.86392567495 1.0172219679 1.1502619915 1.2630228569 0.26576171152 0.45685295248 0.6552068806 0.84594095064 1.0172219679 
1.1636342747 1.2852923014 1.3852070904 0.22715816343 0.3129712797 0.49462574053 0.49462574053 0.68021497688 0.77059342779 
1.0172219679 1.0172219679 1.0172219679 1.0172219679 2.1243706857 1.5707963268 1.3676273807 1.271087727 1.2156949949 
2.6469669131 2.1243706857 1.7739652728 1.5707963268 1.447813335 1.3676273807 2.8286213739 2.4613776767 2.1243706857 
1.8705049266 1.6937793186 1.5707963268 1.4827341049 2.9144344902 2.6469669131 2.3709992258 2.1243706857 1.9258976586 
1.7739652728 1.6588585487 1.5707963268 1.7563855631 1.8563003522 1.8785697967 1.9779583789 1.9913306621 2.0024758186 
2.1243706857 2.1243706857 2.1243706857 2.1243706857 2.295651703 2.2776669786 2.2630782103 2.2510113037 2.2408671392 
2.486385773 2.4475202889 2.4159740166 2.3899057108 2.3680303173 2.3494282469 2.6847397011 2.6258554882 2.5773755784 
2.5369440334 2.5028148801 2.4736848652 2.448570738 2.8758309421 2.8018393335 2.7393287203 2.6862098746 2.6407557529 
2.6015718084 2.5675431237 2.5377803997 5.8604937156 5.901393709 5.9723133995 5.9473927383 6.0216547488 6.0927478736 
5.9992719463 6.0767621038 6.1501452836 6.2190157008 6.0578962336 6.1383094565 6.2134963469 0 0.064169606361 
6.1241815303 6.206940195 6.2831853072 0.069688960264 0.13304002361 0.19043743361 6.1990255847 0 0.07624511221 
0.14487585072 0.20642320337 0.26153055843 0.3108719077 0 0.084159722458 0.15900377685 0.22528907359 0.28391336087 
0.3357925689 0.38179159818 0.42269159155 5.8604937156 5.9723133995 5.901393709 6.0927478736 6.0216547488 5.9473927383 
6.2190157008 6.1501452836 6.0767621038 5.9992719463 0.064169606361 0 6.2134963469 6.1383094565 6.0578962336 
0.19043743361 0.13304002361 0.069688960264 6.2831853072 6.206940195 6.1241815303 0.3108719077 0.26153055843 0.20642320337 
0.14487585072 0.07624511221 6.2831853072 6.1990255847 0.42269159155 0.38179159818 0.3357925689 0.28391336087 0.22528907359 
0.15900377685 0.084159722458 0 5.6793730533 5.7091357773 5.5901633916 5.743164462 5.6152775188 5.4910209005 
5.7823484065 5.6444075337 5.5096229709 5.3824597928 5.8278025282 5.678536687 5.5314983644 5.3926039573 5.2659633393 
5.8809213739 5.718968232 5.5575666702 5.4046708639 5.2659633393 5.1440684722 5.9434319871 5.7674481418 5.5891129425 
5.4192596322 5.2659633393 5.1329233157 5.0201624502 6.0174235957 5.8263323547 5.6279784266 5.4372443565 5.2659633393 
5.1195510325 4.9978930058 4.8979782167 1.3852070904 1.2852923014 1.2630228569 1.1636342747 1.1502619915 1.139116835 
1.0172219679 1.0172219679 1.0172219679 1.0172219679 0.84594095064 0.86392567495 0.87851444325 0.89058134991 0.90072551443 
0.6552068806 0.69407236469 0.72561863695 0.75168694275 0.77356233629 0.79216440667 0.45685295248 0.51573716537 0.56421707518 
0.60464862014 0.63877777351 0.66790778838 0.69302191562 0.26576171152 0.33975332011 0.40226393329 0.45538277901 0.50083690068 
0.54002084522 0.57404952988 0.60381225391 
_paraPhiHalf 1 1002 double
0 3.1415926536 0 3.1415926536 1.5707963268 1.5707963268 1.5707963268 1.5707963268 2.5880182947 
0.5535743589 2.5880182947 0.5535743589 0 0 0 0 3.1415926536 3.1415926536 
3.1415926536 3.1415926536 3.1415926536 0.17788134 0.38438696014 0.60631181711 0.82323535693 1.0172219679 1.1799687454 
1.3118704726 1.4175000338 1.5022335207 0.17788134 0.38438696014 0.60631181711 0.82323535693 1.0172219679 1.1799687454 
1.3118704726 1.4175000338 1.5022335207 0.093902416448 0.17615329733 0.2478725152 0.31035131605 0.36486382811 0.41257334776 
0.45449736604 0.4915044461 0.52432611754 0.093902416448 0.17615329733 0.2478725152 0.31035131605 0.36486382811 0.41257334776 
0.45449736604 0.4915044461 0.52432611754 2.9637113136 2.7572056934 2.5352808365 2.3183572967 2.1243706857 1.9616239082 
1.829722181 1.7240926197 1.6393591329 2.9637113136 2.7572056934 2.5352808365 2.3183572967 2.1243706857 1.9616239082 
1.829722181 1.7240926197 1.6393591329 3.0476902371 2.9654393563 2.8937201384 2.8312413375 2.7767288255 2.7290193058 
2.6870952876 2.6500882075 2.617266536 3.0476902371 2.9654393563 2.8937201384 2.8312413375 2.7767288255 2.7290193058 
2.6870952876 2.6500882075 2.617266536 0 0 0 0 3.1415926536 3.1415926536 
3.1415926536 3.1415926536 3.1415926536 0.17788134 0.38438696014 0.60631181711 0.82323535693 1.0172219679 1.1799687454 
1.3118704726 1.4175000338 1.5022335207 0.17788134 0.38438696014 0.60631181711 0.82323535693 1.0172219679 1.1799687454 
1.3118704726 1.4175000338 1.5022335207 0.093902416448 0.17615329733 0.2478725152 0.31035131605 0.36486382811 0.41257334776 
0.45449736604 0.4915044461 0.52432611754 0.093902416448 0.17615329733 0.2478725152 0.31035131605 0.36486382811 0.41257334776 
0.45449736604 0.4915044461 0.52432611754 2.9637113136 2.7572056934 2.5352808365 2.3183572967 2.1243706857 1.9616239082 
1.829722181 1.7240926197 1.6393591329 2.9637113136 2.7572056934 2.5352808365 2.3183572967 2.1243706857 1.9616239082 
1.829722181 1.7240926197 1.6393591329 3.0476902371 2.9654393563 2.8937201384 2.8312413375 2.7767288255 2.7290193058 
2.6870952876 2.6500882075 2.617266536 3.0476902371 2.9654393563 2.8937201384 2.8312413375 2.7767288255 2.7290193058 
2.6870952876 2.6500882075 2.617266536 1.5707963268 1.5707963268 1.5707963268 1.5707963268 1.5707963268 1.5707963268 
1.5707963268 1.5707963268 1.5707963268 1.6743954455 1.7840462375 1.8974821136 2.0119052671 2.1243706857 2.232221744 
2.3334263672 2.426721652 2.5115728246 1.4671972081 1.3575464161 1.24411054 1.1296873865 1.0172219679 0.90937090954 
0.80816628637 0.71487100155 0.63001982895 1.6743954455 1.7840462375 1.8974821136 2.0119052671 2.1243706857 2.232221744 
2.3334263672 2.426721652 2.5115728246 1.4671972081 1.3575464161 1.24411054 1.1296873865 1.0172219679 0.90937090954 
0.80816628637 0.71487100155 0.63001982895 1.5707963268 1.5707963268 1.5707963268 1.5707963268 1.5707963268 1.5707963268 
1.5707963268 1.5707963268 1.5707963268 1.6743954455 1.7840462375 1.8974821136 2.0119052671 2.1243706857 2.232221744 
2.3334263672 2.426721652 2.5115728246 1.4671972081 1.3575464161 1.24411054 1.1296873865 1.0172219679 0.90937090954 
0.80816628637 0.71487100155 0.63001982895 1.6743954455 1.7840462375 1.8974821136 2.0119052671 2.1243706857 2.232221744 
2.3334263672 2.426721652 2.5115728246 1.4671972081 1.3575464161 1.24411054 1.1296873865 1.0172219679 0.90937090954 
0.80816628637 0.71487100155 0.63001982895 2.6824132222 2.7864913217 2.8992382033 3.0186096618 3.1415926536 3.0186096618 
2.8992382033 2.7864913217 2.6824132222 0.45917943135 0.35510133185 0.2423544503 0.12298299178 0 0.12298299178 
0.2423544503 0.35510133185 0.45917943135 0.22715816343 0.49462574053 0.3129712797 0.77059342779 0.68021497688 0.49462574053 
1.0172219679 1.0172219679 1.0172219679 1.0172219679 1.2156949949 1.271087727 1.3676273807 1.5707963268 2.1243706857 
1.3676273807 1.447813335 1.5707963268 1.7739652728 2.1243706857 2.6469669131 1.4827341049 1.5707963268 1.6937793186 
1.8705049266 2.1243706857 2.4613776767 2.8286213739 1.5707963268 1.6588585487 1.7739652728 1.9258976586 2.1243706857 
2.3709992258 2.6469669131 2.9144344902 0.26576171152 0.33975332011 0.45685295248 0.40226393329 0.51573716537 0.6552068806 
0.45538277901 0.56421707518 0.69407236469 0.84594095064 0.50083690068 0.60464862014 0.72561863695 0.86392567495 1.0172219679 
0.54002084522 0.63877777351 0.75168694275 0.87851444325 1.0172219679 1.1636342747 0.57404952988 0.66790778838 0.77356233629 
0.89058134991 1.0172219679 1.1502619915 1.2852923014 0.60381225391 0.69302191562 0.79216440667 0.90072551443 1.0172219679 
1.139116835 1.2630228569 1.3852070904 0.71487100155 0.80816628637 0.80816628637 0.90937090954 0.90937090954 0.90937090954 
1.0172219679 1.0172219679 1.0172219679 1.0172219679 1.1296873865 1.1296873865 1.1296873865 1.1296873865 1.1296873865 
1.24411054 1.24411054 1.24411054 1.24411054 1.24411054 1.24411054 1.3575464161 1.3575464161 1.3575464161 
1.3575464161 1.3575464161 1.3575464161 1.3575464161 1.4671972081 1.4671972081 1.4671972081 1.4671972081 1.4671972081 
1.4671972081 1.4671972081 1.4671972081 1.6743954455 1.6743954455 1.7840462375 1.6743954455 1.7840462375 1.8974821136 
1.6743954455 1.7840462375 1.8974821136 2.0119052671 1.6743954455 1.7840462375 1.8974821136 2.0119052671 2.1243706857 
1.6743954455 1.7840462375 1.8974821136 2.0119052671 2.1243706857 2.232221744 1.6743954455 1.7840462375 1.8974821136 
2.0119052671 2.1243706857 2.232221744 2.3334263672 1.6743954455 1.7840462375 1.8974821136 2.0119052671 2.1243706857 
2.232221744 2.3334263672 2.426721652 1.7563855631 1.8785697967 1.8563003522 2.0024758186 1.9913306621 1.9779583789 
2.1243706857 2.1243706857 2.1243706857 2.1243706857 2.2408671392 2.2510113037 2.2630782103 2.2776669786 2.295651703 
2.3494282469 2.3680303173 2.3899057108 2.4159740166 2.4475202889 2.486385773 2.448570738 2.4736848652 2.5028148801 
2.5369440334 2.5773755784 2.6258554882 2.6847397011 2.5377803997 2.5675431237 2.6015718084 2.6407557529 2.6862098746 
2.7393287203 2.8018393335 2.8758309421 2.718901062 2.8307207459 2.7598010554 2.95115522 2.8800620952 2.8058000847 
3.0774230472 3.00855263 2.9351694502 2.8576792927 3.0774230472 3.1415926536 3.0719036933 2.9967168029 2.91630358 
2.95115522 3.00855263 3.0719036933 3.1415926536 3.0653475414 2.9825888767 2.8307207459 2.8800620952 2.9351694502 
2.9967168029 3.0653475414 3.1415926536 3.0574329311 2.718901062 2.7598010554 2.8058000847 2.8576792927 2.91630358 
2.9825888767 3.0574329311 3.1415926536 2.718901062 2.7598010554 2.8307207459 2.8058000847 2.8800620952 2.95115522 
2.8576792927 2.9351694502 3.00855263 3.0774230472 2.91630358 2.9967168029 3.0719036933 3.1415926536 3.0774230472 
2.9825888767 3.0653475414 3.1415926536 3.0719036933 3.00855263 2.95115522 3.0574329311 3.1415926536 3.0653475414 