# vtk DataFile Version 5.1
vtk output
ASCII
DATASET POLYDATA
POINTS 1002 float
-11.0638 -1.75937 -1.37175 -16.6915 -19.047 -4.14461 -8.13414 -4.3618 4.65536 
-14.3463 -19.5308 1.01487 -11.2234 -10.316 -2.83148 -9.2566 -10.509 0.655543 
-18.1752 -8.92934 0.831251 -17.5369 -11.2627 4.83077 -8.66657 -28.4954 -5.3897 
-0.69893 0.222005 0.0552718 -18.7852 -24.5465 -1.26111 -11.3112 2.43518 3.82927 
-11.7611 -2.74007 -1.55289 -12.5681 -3.9274 -1.74707 -13.4326 -5.39766 -1.91148 
-14.2725 -7.20318 -2.0434 -15.0638 -9.32809 -2.21581 -15.7895 -11.6277 -2.50423 
-16.3428 -13.8652 -2.89635 -16.6446 -15.8635 -3.33721 -16.7379 -17.5786 -3.77349 
-10.7702 -2.03725 -1.69906 -10.5348 -2.41601 -2.02725 -10.3374 -2.98413 -2.32265 
-10.1309 -3.66524 -2.61409 -9.91208 -4.32756 -2.8653 -9.7766 -5.13642 -2.97165 
-9.87064 -6.30602 -2.98407 -10.2379 -7.70491 -3.00313 -10.7496 -9.08101 -2.97173 
-11.8329 -2.09407 -1.16605 -12.6822 -2.52705 -0.960367 -13.5527 -3.06777 -0.745508 
-14.4163 -3.69814 -0.512207 -15.2414 -4.44339 -0.2533 -15.9851 -5.29225 0.00656595 
-16.6736 -6.16653 0.221605 -17.304 -7.06364 0.412139 -17.8016 -8.00626 0.623931 
-10.178 -0.997066 -1.41411 -9.16001 -0.211443 -1.47888 -7.97168 0.550194 -1.53415 
-6.66134 1.21316 -1.55564 -5.26957 1.65928 -1.54094 -3.81399 1.78385 -1.44838 
-2.49289 1.628 -1.20991 -1.54043 1.29556 -0.830472 -0.971044 0.815803 -0.384959 
-10.8857 -1.00358 -1.08687 -10.7611 -0.18526 -0.818911 -10.7053 0.569037 -0.491298 
-10.7034 1.17268 -0.01106 -10.7032 1.70475 0.550943 -10.7438 2.16935 1.10821 
-10.914 2.47378 1.74691 -11.1424 2.61825 2.49775 -11.285 2.60799 3.22691 
-16.2817 -18.7898 -4.26987 -15.8566 -18.4484 -4.38686 -15.3663 -18.0301 -4.41962 
-14.8089 -17.4929 -4.29878 -14.279 -16.8009 -4.0532 -13.7986 -15.9324 -3.74641 
-13.2969 -14.777 -3.42306 -12.7317 -13.2835 -3.13967 -12.0526 -11.6829 -2.93952 
-17.156 -18.3386 -3.78512 -17.5881 -17.456 -3.33895 -17.9456 -16.3834 -2.84509 
-18.2125 -15.1677 -2.35468 -18.3985 -13.9345 -1.8384 -18.4899 -12.7873 -1.28629 
-18.4867 -11.7142 -0.748515 -18.4217 -10.6938 -0.211897 -18.3123 -9.76016 0.334016 
-16.2321 -20.337 -4.52309 -15.5379 -21.7541 -4.86905 -14.6487 -23.2558 -5.22928 
-13.6865 -24.6814 -5.60618 -12.7193 -25.8905 -5.95412 -11.7189 -26.9133 -6.30002 
-10.693 -27.7793 -6.57415 -9.75095 -28.3633 -6.52144 -9.04448 -28.5788 -6.05901 
-16.8801 -20.03 -4.25523 -17.0389 -21.0152 -4.31231 -17.1539 -22.0002 -4.26889 
-17.2877 -22.966 -4.10444 -17.4749 -23.7822 -3.83374 -17.7111 -24.3456 -3.46798 
-18.0433 -24.7181 -3.00178 -18.4248 -24.9181 -2.44544 -18.6925 -24.8574 -1.84567 
-8.9079 -5.40876 4.66868 -9.71913 -6.62035 4.67819 -10.5728 -8.02791 4.6103 
-11.5005 -9.61747 4.34716 -12.4132 -11.3178 3.9067 -13.1633 -13.0771 3.35627 
-13.7129 -14.8537 2.70718 -14.0864 -16.559 2.04497 -14.291 -18.1212 1.47784 
-7.94058 -4.78239 4.36498 -7.74751 -5.28187 4.06556 -7.62586 -5.84946 3.72376 
-7.59111 -6.4694 3.31727 -7.64021 -7.12097 2.86732 -7.79307 -7.79038 2.42214 
-8.03241 -8.50176 1.9936 -8.34827 -9.2349 1.54916 -8.76529 -9.90898 1.09081 
-8.76529 -4.62567 4.98319 -9.45329 -4.99665 5.32388 -10.3793 -5.51072 5.54967 
-11.6132 -6.21267 5.58763 -12.9195 -7.09719 5.56197 -14.1119 -8.07362 5.57825 
-15.2171 -9.02059 5.55083 -16.1854 -9.86401 5.39375 -16.9393 -10.6017 5.13211 
-7.24299 -3.62385 4.42297 -6.31912 -2.90433 4.08743 -5.42377 -2.23572 3.65236 
-4.49158 -1.61615 3.20624 -3.48706 -1.04301 2.78385 -2.54123 -0.570398 2.33329 
-1.7459 -0.234177 1.83392 -1.12043 -0.00479062 1.28237 -0.751416 0.145026 0.672974 
-7.78536 -3.47287 4.81758 -7.49426 -2.47538 4.93108 -7.36804 -1.36553 4.9614 
-7.47843 -0.197374 4.93808 -7.82472 0.874293 4.89729 -8.37738 1.68915 4.83365 
-9.10485 2.21156 4.71974 -9.92153 2.4794 4.51793 -10.6887 2.53397 4.21092 
-13.9847 -19.1515 0.927205 -13.57 -18.6504 0.892786 -13.1515 -17.9509 0.858458 
-12.7661 -17.0358 0.823112 -12.38 -15.9566 0.834593 -11.9413 -14.7553 0.870397 
-11.4016 -13.4836 0.885325 -10.7355 -12.2773 0.871321 -9.99238 -11.2784 0.802198 
-14.6853 -19.0248 1.43645 -15.0441 -18.4552 1.91043 -15.4429 -17.7661 2.38331 
-15.877 -16.9797 2.8425 -16.3008 -16.1791 3.31801 -16.671 -15.3186 3.7809 
-16.9972 -14.3409 4.16091 -17.2833 -13.3224 4.44874 -17.4752 -12.3044 4.67036 
-14.0762 -20.7385 0.490934 -13.6597 -22.1004 -0.0727873 -13.044 -23.5389 -0.632823 
-12.2279 -24.9438 -1.17412 -11.3357 -26.2613 -1.7581 -10.4738 -27.4063 -2.42705 
-9.65263 -28.226 -3.15644 -8.98173 -28.6533 -3.92939 -8.64338 -28.722 -4.70932 
-14.5387 -20.6008 0.851207 -14.7567 -21.6745 0.712998 -15.0791 -22.6249 0.547969 
-15.5362 -23.4124 0.361459 -16.1354 -24.087 0.223915 -16.8435 -24.5901 0.101456 
-17.507 -24.8298 -0.133847 -18.023 -24.8607 -0.49743 -18.4382 -24.7639 -0.89581 
-10.9084 -10.3024 -2.64907 -10.5541 -10.2673 -2.45246 -10.1754 -10.1897 -2.25284 
-9.78318 -10.1113 -1.98234 -9.3987 -10.1161 -1.65353 -9.11554 -10.217 -1.29381 
-9.0136 -10.3336 -0.822667 -9.0493 -10.4081 -0.262387 -9.14032 -10.4568 0.247114 
-12.0017 -12.4142 -2.77633 -12.2583 -14.8793 -3.05311 -11.9925 -17.3833 -3.72053 
-11.4165 -19.5033 -4.47216 -10.7371 -21.2647 -4.98513 -10.1415 -23.0354 -5.2693 
-9.69457 -24.8252 -5.45427 -9.27429 -26.3708 -5.56759 -8.87262 -27.5861 -5.56461 
-9.83898 -8.56351 -2.93355 -8.225 -7.11753 -2.98663 -6.77283 -5.82762 -2.79143 
-5.49674 -4.60024 -2.4318 -4.20741 -3.53637 -2.1243 -3.02541 -2.61488 -1.84869 
-2.0971 -1.75629 -1.47903 -1.36777 -1.00501 -1.01421 -0.87074 -0.36086 -0.491343 
-10.2236 -11.7083 0.30612 -11.0684 -13.5769 -0.163055 -11.4879 -16.2797 -0.833607 
-11.2912 -19.2326 -1.68073 -10.6099 -21.6017 -2.47265 -9.85512 -23.3921 -3.08417 
-9.30801 -25.0568 -3.63916 -8.92216 -26.5643 -4.22689 -8.66296 -27.7015 -4.82655 
-8.17645 -9.47652 0.686828 -7.02811 -8.37945 0.650481 -5.82536 -7.2692 0.597258 
-4.58096 -6.28847 0.551446 -3.40498 -5.32689 0.497514 -2.40055 -4.21321 0.430899 
-1.5817 -3.04654 0.354172 -0.986839 -1.92033 0.25805 -0.690882 -0.812777 0.151444 
-18.3233 -8.97307 1.22402 -18.5381 -8.97079 1.63413 -18.7486 -8.9852 2.14356 
-18.8104 -9.13928 2.74507 -18.7175 -9.43641 3.30231 -18.5789 -9.77913 3.75964 
-18.4061 -10.149 4.15271 -18.1621 -10.5591 4.47077 -17.8657 -10.952 4.69184 
-18.641 -10.3508 0.699856 -19.2291 -11.8019 0.467217 -19.9041 -13.2317 0.124503 
-20.4284 -14.8697 -0.298276 -20.5997 -16.9992 -0.74834 -20.4863 -19.3098 -1.09762 
-20.216 -21.1697 -1.23743 -19.81 -22.5019 -1.24246 -19.3077 -23.5986 -1.24394 
-17.7944 -7.53911 1.17515 -17.355 -6.06298 1.53989 -16.8515 -4.5594 1.94368 
-16.2516 -3.09808 2.34777 -15.5618 -1.74172 2.69204 -14.8326 -0.519159 2.99841 
-14.0321 0.512718 3.29058 -13.1271 1.30206 3.52513 -12.1966 1.91297 3.69562 
-18.1371 -12.6102 4.42952 -18.7781 -14.0611 3.98799 -19.3085 -15.525 3.47051 
-19.682 -16.9871 2.87356 -19.94 -18.5328 2.23906 -19.9795 -20.0632 1.5533 
-19.751 -21.3515 0.798481 -19.4208 -22.4512 0.03989 -19.1072 -23.5342 -0.652523 
-17.1726 -9.70162 5.14245 -16.7562 -7.91725 5.40932 -16.2241 -6.0119 5.56165 
-15.5171 -4.10839 5.59273 -14.7287 -2.27435 5.58299 -13.9713 -0.68239 5.51362 
-13.2258 0.448118 5.24713 -12.499 1.20685 4.79365 -11.8586 1.8478 4.2988 
-8.97645 -29.3026 -5.45339 -9.82273 -29.7973 -5.24531 -11.0663 -29.7597 -4.75897 
-12.4298 -29.3376 -4.15179 -13.7873 -28.7946 -3.53786 -15.1225 -28.091 -2.9301 
-16.3602 -27.2745 -2.39628 -17.3945 -26.4844 -1.98154 -18.1859 -25.6004 -1.62092 
-0.940449 1.17439 0.351607 -1.51342 2.0667 0.64234 -2.37131 2.77916 0.883083 
-3.47435 3.28977 1.14617 -4.83738 3.62428 1.55988 -6.39766 3.81364 2.12291 
-7.95171 3.84153 2.71658 -9.30302 3.59705 3.22097 -10.3994 3.07157 3.58123 
-11.5392 -3.1515 -1.88011 -11.3811 -3.73625 -2.17873 -12.4216 -4.52594 -2.04446 
-11.2576 -4.444 -2.48475 -12.3244 -5.29252 -2.3118 -13.3505 -6.19484 -2.17767 
-11.1464 -5.132 -2.81825 -12.2922 -6.10479 -2.62451 -13.3224 -7.14409 -2.42378 
-14.2538 -8.23801 -2.30694 -11.1029 -5.95691 -3.00449 -12.3654 -7.04553 -2.91744 
-13.4096 -8.25835 -2.70799 -14.2957 -9.48448 -2.55526 -15.0967 -10.6421 -2.51859 
-11.2108 -7.2298 -2.9688 -12.5333 -8.45047 -2.98418 -13.5901 -9.76272 -2.94642 
-14.3871 -11.0149 -2.85628 -15.1167 -12.1568 -2.84139 -15.7887 -13.117 -2.88549 
-11.4745 -8.81483 -2.92251 -12.6944 -10.227 -2.9254 -13.6909 -11.6322 -3.04563 
-14.4006 -12.8189 -3.17193 -15.0264 -13.8123 -3.26225 -15.664 -14.656 -3.34109 
-16.2063 -15.3336 -3.37113 -11.7969 -10.3471 -2.94989 -12.7648 -11.9021 -2.99066 
-13.5779 -13.3918 -3.16856 -14.1991 -14.5578 -3.44196 -14.7426 -15.4362 -3.69515 
-15.3352 -16.1463 -3.86253 -15.8941 -16.728 -3.91365 -16.3418 -17.2012 -3.8648 
-9.81762 -1.23466 -1.76563 -8.68709 -0.441065 -1.83459 -9.49093 -1.59041 -2.10265 
-7.35486 0.253356 -1.87251 -8.21381 -0.850736 -2.1413 -9.18114 -2.20053 -2.37489 
-5.89977 0.782947 -1.86747 -6.73787 -0.276949 -2.13049 -7.79084 -1.54314 -2.35498 
-8.88408 -2.95647 -2.6081 -4.39033 1.05723 -1.79827 -5.18315 0.118389 -2.07715 
-6.2542 -1.03849 -2.30121 -7.47664 -2.37713 -2.53246 -8.61607 -3.7225 -2.79565 
-2.97898 1.00491 -1.62148 -3.70188 0.229952 -1.95295 -4.71747 -0.767709 -2.22865 
-6.00076 -1.99022 -2.45947 -7.27314 -3.31437 -2.69922 -8.48507 -4.67099 -2.91744 
-1.91271 0.692605 -1.32463 -2.54205 -0.00293541 -1.73241 -3.42833 -0.878265 -2.08689 
-4.63702 -1.95044 -2.36602 -5.99147 -3.17352 -2.5941 -7.27246 -4.47321 -2.84507 
-8.66608 -5.91325 -3.01388 -1.24316 0.217187 -0.933149 -1.8064 -0.457931 -1.41436 
-2.58495 -1.27678 -1.83426 -3.63319 -2.23672 -2.16951 -4.94009 -3.30331 -2.41747 
-6.25672 -4.4982 -2.69294 -7.60508 -5.79926 -2.96422 -9.17849 -7.27722 -3.04797 
-1.00188 -1.45634 -0.409605 -1.43312 -2.62818 -0.327565 -1.65876 -2.16214 -0.959014 
-2.1449 -3.84546 -0.276498 -2.22472 -3.38225 -0.902522 -2.55381 -2.95039 -1.41412 
-3.06967 -5.06356 -0.22723 -3.03986 -4.64029 -0.87482 -3.27024 -4.1513 -1.32896 
-3.67834 -3.78764 -1.73699 -4.17359 -6.14401 -0.114059 -4.05069 -5.88476 -0.824178 
-4.18547 -5.45203 -1.31831 -4.52839 -5.03181 -1.69051 -4.98492 -4.78015 -2.08716 
[...]
POINT_DATA 1002
FIELD FieldData 4
_paraPhi 1 1002 double
6.2831853072 3.1415926536 6.2831853072 3.1415926536 4.7123889804 4.7123889804 1.5707963268 1.5707963268 3.6951670125 
5.7296109483 2.5880182947 0.5535743589 6.2831853072 6.2831853072 6.2831853072 6.2831853072 3.1415926536 3.1415926536 
3.1415926536 3.1415926536 3.1415926536 6.1053039672 5.898798347 5.6768734901 5.4599499503 5.2659633393 5.1032165617 
4.9713148346 4.8656852733 4.7809517865 0.17788134 0.38438696014 0.60631181711 0.82323535693 1.0172219679 1.1799687454 
1.3118704726 1.4175000338 1.5022335207 6.1892828907 6.1070320098 6.035312792 5.9728339911 5.9183214791 5.8706119594 
5.8286879411 5.7916808611 5.7588591896 0.093902416448 0.17615329733 0.2478725152 0.31035131605 0.36486382811 0.41257334776 
0.45449736604 0.4915044461 0.52432611754 3.3194739936 3.5259796137 3.7479044707 3.9648280105 4.1588146215 4.321561399 
4.4534631262 4.5590926874 4.6438261743 2.9637113136 2.7572056934 2.5352808365 2.3183572967 2.1243706857 1.9616239082 
1.829722181 1.7240926197 1.6393591329 3.23549507 3.3177459509 3.3894651688 3.4519439696 3.5064564817 3.5541660013 
3.5960900196 3.6330970997 3.6659187711 3.0476902371 2.9654393563 2.8937201384 2.8312413375 2.7767288255 2.7290193058 
2.6870952876 2.6500882075 2.617266536 6.2831853072 6.2831853072 6.2831853072 6.2831853072 3.1415926536 3.1415926536 
3.1415926536 3.1415926536 3.1415926536 6.1053039672 5.898798347 5.6768734901 5.4599499503 5.2659633393 5.1032165617 
4.9713148346 4.8656852733 4.7809517865 0.17788134 0.38438696014 0.60631181711 0.82323535693 1.0172219679 1.1799687454 
1.3118704726 1.4175000338 1.5022335207 6.1892828907 6.1070320098 6.035312792 5.9728339911 5.9183214791 5.8706119594 
5.8286879411 5.7916808611 5.7588591896 0.093902416448 0.17615329733 0.2478725152 0.31035131605 0.36486382811 0.41257334776 
0.45449736604 0.4915044461 0.52432611754 3.3194739936 3.5259796137 3.7479044707 3.9648280105 4.1588146215 4.321561399 
4.4534631262 4.5590926874 4.6438261743 2.9637113136 2.7572056934 2.5352808365 2.3183572967 2.1243706857 1.9616239082 
1.829722181 1.7240926197 1.6393591329 3.23549507 3.3177459509 3.3894651688 3.4519439696 3.5064564817 3.5541660013 
3.5960900196 3.6330970997 3.6659187711 3.0476902371 2.9654393563 2.8937201384 2.8312413375 2.7767288255 2.7290193058 
2.6870952876 2.6500882075 2.617266536 4.7123889804 4.7123889804 4.7123889804 4.7123889804 4.7123889804 4.7123889804 
4.7123889804 4.7123889804 4.7123889804 4.6087898617 4.4991390697 4.3857031936 4.2712800401 4.1588146215 4.0509635631 
3.94975894 3.8564636551 3.7716124825 4.8159880991 4.9256388911 5.0390747672 5.1534979207 5.2659633393 5.3738143976 
5.4750190208 5.5683143056 5.6531654782 4.6087898617 4.4991390697 4.3857031936 4.2712800401 4.1588146215 4.0509635631 
3.94975894 3.8564636551 3.7716124825 4.8159880991 4.9256388911 5.0390747672 5.1534979207 5.2659633393 5.3738143976 
5.4750190208 5.5683143056 5.6531654782 1.5707963268 1.5707963268 1.5707963268 1.5707963268 1.5707963268 1.5707963268 
1.5707963268 1.5707963268 1.5707963268 1.6743954455 1.7840462375 1.8974821136 2.0119052671 2.1243706857 2.232221744 
2.3334263672 2.426721652 2.5115728246 1.4671972081 1.3575464161 1.24411054 1.1296873865 1.0172219679 0.90937090954 
0.80816628637 0.71487100155 0.63001982895 1.6743954455 1.7840462375 1.8974821136 2.0119052671 2.1243706857 2.232221744 
2.3334263672 2.426721652 2.5115728246 1.4671972081 1.3575464161 1.24411054 1.1296873865 1.0172219679 0.90937090954 
0.80816628637 0.71487100155 0.63001982895 3.6007720849 3.4966939854 3.3839471039 3.2645756454 3.1415926536 3.0186096618 
2.8992382033 2.7864913217 2.6824132222 5.8240058758 5.9280839753 6.0408308569 6.1602023154 6.2831853072 0.12298299178 
0.2423544503 0.35510133185 0.45917943135 6.0560271438 5.7885595667 5.9702140275 5.5125918794 5.6029703303 5.7885595667 
5.2659633393 5.2659633393 5.2659633393 5.2659633393 5.0674903122 5.0120975802 4.9155579264 4.7123889804 4.1588146215 
4.9155579264 4.8353719722 4.7123889804 4.5092200343 4.1588146215 3.6362183941 4.8004512023 4.7123889804 4.5894059886 
4.4126803806 4.1588146215 3.8218076305 3.4545639333 4.7123889804 4.6243267584 4.5092200343 4.3572876485 4.1588146215 
3.9121860814 3.6362183941 3.368750817 6.0174235957 5.9434319871 5.8263323547 5.8809213739 5.7674481418 5.6279784266 
5.8278025282 5.718968232 5.5891129425 5.4372443565 5.7823484065 5.678536687 5.5575666702 5.4192596322 5.2659633393 
5.743164462 5.6444075337 5.5314983644 5.4046708639 5.2659633393 5.1195510325 5.7091357773 5.6152775188 5.5096229709 
5.3926039573 5.2659633393 5.1329233157 4.9978930058 5.6793730533 5.5901633916 5.4910209005 5.3824597928 5.2659633393 
5.1440684722 5.0201624502 4.8979782167 5.5683143056 5.4750190208 5.4750190208 5.3738143976 5.3738143976 5.3738143976 
5.2659633393 5.2659633393 5.2659633393 5.2659633393 5.1534979207 5.1534979207 5.1534979207 5.1534979207 5.1534979207 
5.0390747672 5.0390747672 5.0390747672 5.0390747672 5.0390747672 5.0390747672 4.9256388911 4.9256388911 4.9256388911 
4.9256388911 4.9256388911 4.9256388911 4.9256388911 4.8159880991 4.8159880991 4.8159880991 4.8159880991 4.8159880991 
4.8159880991 4.8159880991 4.8159880991 4.6087898617 4.6087898617 4.4991390697 4.6087898617 4.4991390697 4.3857031936 
4.6087898617 4.4991390697 4.3857031936 4.2712800401 4.6087898617 4.4991390697 4.3857031936 4.2712800401 4.1588146215 
4.6087898617 4.4991390697 4.3857031936 4.2712800401 4.1588146215 4.0509635631 4.6087898617 4.4991390697 4.3857031936 
4.2712800401 4.1588146215 4.0509635631 3.94975894 4.6087898617 4.4991390697 4.3857031936 4.2712800401 4.1588146215 
4.0509635631 3.94975894 3.8564636551 4.526799744 4.4046155105 4.426884955 4.2807094886 4.2918546451 4.3052269283 
4.1588146215 4.1588146215 4.1588146215 4.1588146215 4.042318168 4.0321740035 4.0201070968 4.0055183285 3.9875336042 
3.9337570603 3.9151549899 3.8932795963 3.8672112905 3.8356650183 3.7967995342 3.8346145692 3.809500442 3.7803704271 
3.7462412737 3.7058097288 3.657329819 3.5984456061 3.7454049075 3.7156421835 3.6816134988 3.6424295543 3.5969754326 
3.5438565869 3.4813459737 3.4073543651 3.5642842451 3.4524645613 3.5233842518 3.3320300872 3.403123212 3.4773852225 
3.20576226 3.2746326772 3.348015857 3.4255060145 3.0774230472 3.1415926536 3.2112816139 3.2864685043 3.3668817272 
2.95115522 3.00855263 3.0719036933 3.1415926536 3.2178377658 3.3005964304 2.8307207459 2.8800620952 2.9351694502 
2.9967168029 3.0653475414 3.1415926536 3.225752376 2.718901062 2.7598010554 2.8058000847 2.8576792927 2.91630358 
2.9825888767 3.0574329311 3.1415926536 3.5642842451 3.5233842518 3.4524645613 3.4773852225 3.403123212 3.3320300872 
3.4255060145 3.348015857 3.2746326772 3.20576226 3.3668817272 3.2864685043 3.2112816139 3.1415926536 3.0774230472 
3.3005964304 3.2178377658 3.1415926536 3.0719036933 3.00855263 2.95115522 3.225752376 3.1415926536 3.0653475414 
2.9967168029 2.9351694502 2.8800620952 2.8307207459 3.1415926536 3.0574329311 2.9825888767 2.91630358 2.8576792927 
2.8058000847 2.7598010554 2.718901062 4.526799744 4.426884955 4.4046155105 4.3052269283 4.2918546451 4.2807094886 
4.1588146215 4.1588146215 4.1588146215 4.1588146215 3.9875336042 4.0055183285 4.0201070968 4.0321740035 4.042318168 
3.7967995342 3.8356650183 3.8672112905 3.8932795963 3.9151549899 3.9337570603 3.5984456061 3.657329819 3.7058097288 
3.7462412737 3.7803704271 3.809500442 3.8346145692 3.4073543651 3.4813459737 3.5438565869 3.5969754326 3.6424295543 
3.6816134988 3.7156421835 3.7454049075 4.7123889804 4.8004512023 4.6243267584 4.9155579264 4.7123889804 4.5092200343 
5.0674903122 4.8353719722 4.5894059886 4.3572876485 5.2659633393 5.0120975802 4.7123889804 4.4126803806 4.1588146215 
5.5125918794 5.2659633393 4.9155579264 4.5092200343 4.1588146215 3.9121860814 5.7885595667 5.6029703303 5.2659633393 
4.7123889804 4.1588146215 3.8218076305 3.6362183941 6.0560271438 5.9702140275 5.7885595667 5.2659633393 4.1588146215 
3.6362183941 3.4545639333 3.368750817 0.22715816343 0.49462574053 0.3129712797 0.77059342779 0.68021497688 0.49462574053 
1.0172219679 1.0172219679 1.0172219679 1.0172219679 1.2156949949 1.271087727 1.3676273807 1.5707963268 2.1243706857 
1.3676273807 1.447813335 1.5707963268 1.7739652728 2.1243706857 2.6469669131 1.4827341049 1.5707963268 1.6937793186 
1.8705049266 2.1243706857 2.4613776767 2.8286213739 1.5707963268 1.6588585487 1.7739652728 1.9258976586 2.1243706857 
2.3709992258 2.6469669131 2.9144344902 1.7563855631 1.8785697967 1.8563003522 2.0024758186 1.9913306621 1.9779583789 
2.1243706857 2.1243706857 2.1243706857 2.1243706857 2.2408671392 2.2510113037 2.2630782103 2.2776669786 2.295651703 
2.3494282469 2.3680303173 2.3899057108 2.4159740166 2.4475202889 2.486385773 2.448570738 2.4736848652 2.5028148801 
2.5369440334 2.5773755784 2.6258554882 2.6847397011 2.5377803997 2.5675431237 2.6015718084 2.6407557529 2.6862098746 
2.7393287203 2.8018393335 2.8758309421 1.6743954455 1.6743954455 1.7840462375 1.6743954455 1.7840462375 1.8974821136 
1.6743954455 1.7840462375 1.8974821136 2.0119052671 1.6743954455 1.7840462375 1.8974821136 2.0119052671 2.1243706857 
1.6743954455 1.7840462375 1.8974821136 2.0119052671 2.1243706857 2.232221744 1.6743954455 1.7840462375 1.8974821136 
2.0119052671 2.1243706857 2.232221744 2.3334263672 1.6743954455 1.7840462375 1.8974821136 2.0119052671 2.1243706857 
2.232221744 2.3334263672 2.426721652 1.4671972081 1.3575464161 1.4671972081 1.24411054 1.3575464161 1.4671972081 
1.1296873865 1.24411054 1.3575464161 1.4671972081 1.0172219679 1.1296873865 1.24411054 1.3575464161 1.4671972081 
0.90937090954 1.0172219679 1.1296873865 1.24411054 1.3575464161 1.4671972081 0.80816628637 0.90937090954 1.0172219679 
1.1296873865 1.24411054 1.3575464161 1.4671972081 0.71487100155 0.80816628637 0.90937090954 1.0172219679 1.1296873865 
1.24411054 1.3575464161 1.4671972081 0.60381225391 0.57404952988 0.69302191562 0.54002084522 0.66790778838 0.79216440667 
0.50083690068 0.63877777351 0.77356233629 0.90072551443 0.45538277901 0.60464862014 0.75168694275 0.89058134991 1.0172219679 
0.40226393329 0.56421707518 0.72561863695 0.87851444325 1.0172219679 1.139116835 0.33975332011 0.51573716537 0.69407236469 
0.86392567495 1.0172219679 1.1502619915 1.2630228569 0.26576171152 0.45685295248 0.6552068806 0.84594095064 1.0172219679 
1.1636342747 1.2852923014 1.3852070904 0.22715816343 0.3129712797 0.49462574053 0.49462574053 0.68021497688 0.77059342779 
1.0172219679 1.0172219679 1.0172219679 1.0172219679 2.1243706857 1.5707963268 1.3676273807 1.271087727 1.2156949949 
2.6469669131 2.1243706857 1.7739652728 1.5707963268 1.447813335 1.3676273807 2.8286213739 2.4613776767 2.1243706857 
1.8705049266 1.6937793186 1.5707963268 1.4827341049 2.9144344902 2.6469669131 2.3709992258 2.1243706857 1.9258976586 
1.7739652728 1.6588585487 1.5707963268 1.7563855631 1.8563003522 1.8785697967 1.9779583789 1.9913306621 2.0024758186 
2.1243706857 2.1243706857 2.1243706857 2.1243706857 2.295651703 2.2776669786 2.2630782103 2.2510113037 2.2408671392 
2.486385773 2.4475202889 2.4159740166 2.3899057108 2.3680303173 2.3494282469 2.6847397011 2.6258554882 2.5773755784 
2.5369440334 2.5028148801 2.4736848652 2.448570738 2.8758309421 2.8018393335 2.7393287203 2.6862098746 2.6407557529 
2.6015718084 2.5675431237 2.5377803997 5.8604937156 5.901393709 5.9723133995 5.9473927383 6.0216547488 6.0927478736 
5.9992719463 6.0767621038 6.1501452836 6.2190157008 6.0578962336 6.1383094565 6.2134963469 0 0.064169606361 
6.1241815303 6.206940195 6.2831853072 0.069688960264 0.13304002361 0.19043743361 6.1990255847 0 0.07624511221 
0.14487585072 0.20642320337 0.26153055843 0.3108719077 0 0.084159722458 0.15900377685 0.22528907359 0.28391336087 
0.3357925689 0.38179159818 0.42269159155 5.8604937156 5.9723133995 5.901393709 6.0927478736 6.0216547488 5.9473927383 
6.2190157008 6.1501452836 6.0767621038 5.9992719463 0.064169606361 0 6.2134963469 6.1383094565 6.0578962336 
0.19043743361 0.13304002361 0.069688960264 6.2831853072 6.206940195 6.1241815303 0.3108719077 0.26153055843 0.20642320337 
0.14487585072 0.07624511221 6.2831853072 6.1990255847 0.42269159155 0.38179159818 0.3357925689 0.28391336087 0.22528907359 
0.15900377685 0.084159722458 0 5.6793730533 5.7091357773 5.5901633916 5.743164462 5.6152775188 5.4910209005 
5.7823484065 5.6444075337 5.5096229709 5.3824597928 5.8278025282 5.678536687 5.5314983644 5.3926039573 5.2659633393 
5.8809213739 5.718968232 5.5575666702 5.4046708639 5.2659633393 5.1440684722 5.9434319871 5.7674481418 5.5891129425 
5.4192596322 5.2659633393 5.1329233157 5.0201624502 6.0174235957 5.8263323547 5.6279784266 5.4372443565 5.2659633393 
5.1195510325 4.9978930058 4.8979782167 1.3852070904 1.2852923014 1.2630228569 1.1636342747 1.1502619915 1.139116835 
1.0172219679 1.0172219679 1.0172219679 1.0172219679 0.84594095064 0.86392567495 0.87851444325 0.89058134991 0.90072551443 
0.6552068806 0.69407236469 0.72561863695 0.75168694275 0.77356233629 0.79216440667 0.45685295248 0.51573716537 0.56421707518 
0.60464862014 0.63877777351 0.66790778838 0.69302191562 0.26576171152 0.33975332011 0.40226393329 0.45538277901 0.50083690068 
0.54002084522 0.57404952988 0.60381225391 
_paraPhiHalf 1 1002 double
0 3.1415926536 0 3.1415926536 1.5707963268 1.5707963268 1.5707963268 1.5707963268 2.5880182947 
0.5535743589 2.5880182947 0.5535743589 0 0 0 0 3.1415926536 3.1415926536 
3.1415926536 3.1415926536 3.1415926536 0.17788134 0.38438696014 0.60631181711 0.82323535693 1.0172219679 1.1799687454 
1.3118704726 1.4175000338 1.5022335207 0.17788134 0.38438696014 0.60631181711 0.82323535693 1.0172219679 1.1799687454 
1.3118704726 1.4175000338 1.5022335207 0.093902416448 0.17615329733 0.2478725152 0.31035131605 0.36486382811 0.41257334776 
0.45449736604 0.4915044461 0.52432611754 0.093902416448 0.17615329733 0.2478725152 0.31035131605 0.36486382811 0.41257334776 
0.45449736604 0.4915044461 0.52432611754 2.9637113136 2.7572056934 2.5352808365 2.3183572967 2.1243706857 1.9616239082 
1.829722181 1.7240926197 1.6393591329 2.9637113136 2.7572056934 2.5352808365 2.3183572967 2.1243706857 1.9616239082 
1.829722181 1.7240926197 1.6393591329 3.0476902371 2.9654393563 2.8937201384 2.8312413375 2.7767288255 2.7290193058 
2.6870952876 2.6500882075 2.617266536 3.0476902371 2.9654393563 2.8937201384 2.8312413375 2.7767288255 2.7290193058 
2.6870952876 2.6500882075 2.617266536 0 0 0 0 3.1415926536 3.1415926536 
3.1415926536 3.1415926536 3.1415926536 0.17788134 0.38438696014 0.60631181711 0.82323535693 1.0172219679 1.1799687454 
1.3118704726 1.4175000338 1.5022335207 0.17788134 0.38438696014 0.60631181711 0.82323535693 1.0172219679 1.1799687454 
1.3118704726 1.4175000338 1.5022335207 0.093902416448 0.17615329733 0.2478725152 0.31035131605 0.36486382811 0.41257334776 
0.45449736604 0.4915044461 0.52432611754 0.093902416448 0.17615329733 0.2478725152 0.31035131605 0.36486382811 0.41257334776 
0.45449736604 0.4915044461 0.52432611754 2.9637113136 2.7572056934 2.5352808365 2.3183572967 2.1243706857 1.9616239082 
1.829722181 1.7240926197 1.6393591329 2.9637113136 2.7572056934 2.5352808365 2.3183572967 2.1243706857 1.9616239082 
1.829722181 1.7240926197 1.6393591329 3.0476902371 2.9654393563 2.8937201384 2.8312413375 2.7767288255 2.7290193058 
2.6870952876 2.6500882075 2.617266536 3.0476902371 2.9654393563 2.8937201384 2.8312413375 2.7767288255 2.7290193058 
2.6870952876 2.6500882075 2.617266536 1.5707963268 1.5707963268 1.5707963268 1.5707963268 1.5707963268 1.5707963268 
1.5707963268 1.5707963268 1.5707963268 1.6743954455 1.7840462375 1.8974821136 2.0119052671 2.1243706857 2.232221744 
2.3334263672 2.426721652 2.5115728246 1.4671972081 1.3575464161 1.24411054 1.1296873865 1.0172219679 0.90937090954 
0.80816628637 0.71487100155 0.63001982895 1.6743954455 1.7840462375 1.8974821136 2.0119052671 2.1243706857 2.232221744 
2.3334263672 2.426721652 2.5115728246 1.4671972081 1.3575464161 1.24411054 1.1296873865 1.0172219679 0.90937090954 
0.80816628637 0.71487100155 0.63001982895 1.5707963268 1.5707963268 1.5707963268 1.5707963268 1.5707963268 1.5707963268 
1.5707963268 1.5707963268 1.5707963268 1.6743954455 1.7840462375 1.8974821136 2.0119052671 2.1243706857 2.232221744 
2.3334263672 2.426721652 2.5115728246 1.4671972081 1.3575464161 1.24411054 1.1296873865 1.0172219679 0.90937090954 
0.80816628637 0.71487100155 0.63001982895 1.6743954455 1.7840462375 1.8974821136 2.0119052671 2.1243706857 2.232221744 
2.3334263672 2.426721652 2.5115728246 1.4671972081 1.3575464161 1.24411054 1.1296873865 1.0172219679 0.90937090954 
0.80816628637 0.71487100155 0.63001982895 2.6824132222 2.7864913217 2.8992382033 3.0186096618 3.1415926536 3.0186096618 
2.8992382033 2.7864913217 2.6824132222 0.45917943135 0.35510133185 0.2423544503 0.12298299178 0 0.12298299178 
0.2423544503 0.35510133185 0.45917943135 0.22715816343 0.49462574053 0.3129712797 0.77059342779 0.68021497688 0.49462574053 
1.0172219679 1.0172219679 1.0172219679 1.0172219679 1.2156949949 1.271087727 1.3676273807 1.5707963268 2.1243706857 
1.3676273807 1.447813335 1.5707963268 1.7739652728 2.1243706857 2.6469669131 1.4827341049 1.5707963268 1.6937793186 
1.8705049266 2.1243706857 2.4613776767 2.8286213739 1.5707963268 1.6588585487 1.7739652728 1.9258976586 2.1243706857 
2.3709992258 2.6469669131 2.9144344902 0.26576171152 0.33975332011 0.45685295248 0.40226393329 0.51573716537 0.6552068806 
0.45538277901 0.56421707518 0.69407236469 0.84594095064 0.50083690068 0.60464862014 0.72561863695 0.86392567495 1.0172219679 
0.54002084522 0.63877777351 0.75168694275 0.87851444325 1.0172219679 1.1636342747 0.57404952988 0.66790778838 0.77356233629 
0.89058134991 1.0172219679 1.1502619915 1.2852923014 0.60381225391 0.69302191562 0.79216440667 0.90072551443 1.0172219679 
1.139116835 1.2630228569 1.3852070904 0.71487100155 0.80816628637 0.80816628637 0.90937090954 0.90937090954 0.90937090954 
1.0172219679 1.0172219679 1.0172219679 1.0172219679 1.1296873865 1.1296873865 1.1296873865 1.1296873865 1.1296873865 
1.24411054 1.24411054 1.24411054 1.24411054 1.24411054 1.24411054 1.3575464161 1.3575464161 1.3575464161 
1.3575464161 1.3575464161 1.3575464161 1.3575464161 1.4671972081 1.4671972081 1.4671972081 1.4671972081 1.4671972081 
1.4671972081 1.4671972081 1.4671972081 1.6743954455 1.6743954455 1.7840462375 1.6743954455 1.7840462375 1.8974821136 
1.6743954455 1.7840462375 1.8974821136 2.0119052671 1.6743954455 1.7840462375 1.8974821136 2.0119052671 2.1243706857 
1.6743954455 1.7840462375 1.8974821136 2.0119052671 2.1243706857 2.232221744 1.6743954455 1.7840462375 1.8974821136 
2.0119052671 2.1243706857 2.232221744 2.3334263672 1.6743954455 1.7840462375 1.8974821136 2.0119052671 2.1243706857 
2.232221744 2.3334263672 2.426721652 1.7563855631 1.8785697967 1.8563003522 2.0024758186 1.9913306621 1.9779583789 
2.1243706857 2.1243706857 2.1243706857 2.1243706857 2.2408671392 2.2510113037 2.2630782103 2.2776669786 2.295651703 
2.3494282469 2.3680303173 2.3899057108 2.4159740166 2.4475202889 2.486385773 2.448570738 2.4736848652 2.5028148801 
2.5369440334 2.5773755784 2.6258554882 2.6847397011 2.5377803997 2.5675431237 2.6015718084 2.6407557529 2.6862098746 
2.7393287203 2.8018393335 2.8758309421 2.718901062 2.8307207459 2.7598010554 2.95115522 2.8800620952 2.8058000847 
3.0774230472 3.00855263 2.9351694502 2.8576792927 3.0774230472 3.1415926536 3.0719036933 2.9967168029 2.91630358 
2.95115522 3.00855263 3.0719036933 3.1415926536 3.0653475414 2.9825888767 2.8307207459 2.8800620952 2.9351694502 
2.9967168029 3.0653475414 3.1415926536 3.0574329311 2.718901062 2.7598010554 2.8058000847 2.8576792927 2.91630358 
2.9825888767 3.0574329311 3.1415926536 2.718901062 2.7598010554 2.8307207459 2.8058000847 2.8800620952 2.95115522 
2.8576792927 2.9351694502 3.00855263 3.0774230472 2.91630358 2.9967168029 3.0719036933 3.1415926536 3.0774230472 
2.9825888767 3.0653475414 3.1415926536 3.0719036933 3.00855263 2.95115522 3.0574329311 3.1415926536 3.0653475414 