# vtk DataFile Version 5.1
vtk output
ASCII
DATASET POLYDATA
POINTS 1002 float
-8.55241 -0.193921 -3.59104 8.59596 -0.634063 -3.01789 -7.76539 0.185245 3.29891 
7.68751 -0.63705 2.47773 -1.04677 1.62478 -1.9946 -1.859 2.06623 1.44224 
-0.708036 -6.08518 -1.96911 0.426718 -6.75309 2.34936 13.6604 8.96321 0.71835 
-12.7465 7.69046 0.700074 13.445 -2.64167 -0.0770416 -12.5105 -3.34043 -0.0988457 
-7.4744 -0.563346 -3.5908 -6.17378 -0.983685 -3.54937 -4.63107 -1.44916 -3.50019 
-2.76411 -1.89612 -3.38305 -0.545699 -2.15871 -3.15726 1.78546 -2.13572 -2.98837 
3.90101 -1.91161 -2.99118 5.70163 -1.57952 -3.05563 7.25128 -1.14819 -3.07234 
-8.27964 0.278813 -3.62123 -7.86857 0.75572 -3.59937 -7.29986 1.20615 -3.50029 
-6.60349 1.60356 -3.39461 -5.80411 1.92567 -3.36634 -4.91555 2.13277 -3.31043 
-3.99584 2.17792 -3.0708 -3.0692 2.06133 -2.69491 -2.08992 1.84696 -2.31911 
-8.12349 -0.893314 -3.56508 -7.58934 -1.63166 -3.51522 -6.93631 -2.38408 -3.40167 
-6.16438 -3.11431 -3.20884 -5.30237 -3.79218 -2.97452 -4.38787 -4.41257 -2.77251 
-3.44659 -4.9766 -2.62292 -2.50328 -5.45846 -2.44882 -1.58158 -5.82359 -2.20999 
-9.3942 0.4772 -3.56553 -10.223 1.23665 -3.46546 -11.0159 2.10659 -3.23733 
-11.7949 3.09599 -2.8879 -12.5081 4.16081 -2.45562 -12.9803 5.22093 -1.91668 
-13.1815 6.1626 -1.27231 -13.223 6.89104 -0.598238 -13.0928 7.39506 0.0638261 
-9.27906 -0.295771 -3.51394 -10.0014 -0.451092 -3.38851 -10.7119 -0.665219 -3.22141 
-11.3367 -0.961283 -2.96276 -11.8556 -1.33038 -2.62261 -12.3093 -1.74956 -2.28625 
-12.6303 -2.22738 -1.89023 -12.7401 -2.70976 -1.32579 -12.6768 -3.09103 -0.678568 
8.29866 -0.293808 -3.00104 7.867 0.0377036 -2.9644 7.26616 0.355219 -2.89459 
6.49138 0.633886 -2.75974 5.56602 0.799809 -2.57816 4.49737 0.824405 -2.37171 
3.24542 0.811116 -2.15586 1.80158 0.89627 -2.01458 0.298013 1.16082 -1.98723 
8.00946 -1.33641 -3.06068 7.31432 -2.08105 -3.06842 6.49115 -2.80957 -3.03629 
5.49774 -3.47967 -2.96033 4.39544 -4.11413 -2.8416 3.30579 -4.68424 -2.69013 
2.24913 -5.12389 -2.51475 1.20524 -5.4759 -2.32514 0.205714 -5.80287 -2.13993 
9.70709 0.207927 -2.88717 10.7914 1.23624 -2.66908 11.7507 2.42244 -2.37975 
12.5222 3.67571 -2.08851 13.1412 4.90249 -1.85019 13.6622 6.13756 -1.60469 
14.0035 7.40215 -1.2203 14.0628 8.44745 -0.637264 13.9028 8.97269 0.0628653 
9.53692 -0.49965 -2.91728 10.4955 -0.347526 -2.70431 11.4392 -0.233657 -2.43609 
12.3339 -0.270804 -2.22396 13.0802 -0.488497 -2.02719 13.5578 -0.812968 -1.72556 
13.8019 -1.24231 -1.34611 13.8936 -1.77046 -0.942863 13.7849 -2.2699 -0.507565 
-6.65548 -0.289916 3.41902 -5.35943 -0.766218 3.57491 -3.90692 -1.22019 3.6355 
-2.30878 -1.62018 3.49733 -0.552748 -1.89021 3.27433 1.30194 -1.93811 3.06184 
3.13494 -1.75339 2.83875 4.84739 -1.42748 2.65911 6.37382 -1.04635 2.55776 
-7.44084 0.608304 3.30844 -7.04848 1.01095 3.28612 -6.55558 1.37421 3.18945 
-5.98279 1.71724 3.05518 -5.38504 2.01299 2.91875 -4.71956 2.20297 2.73761 
-3.95075 2.29466 2.4853 -3.19483 2.30953 2.17875 -2.52447 2.23051 1.82407 
-7.3978 -0.532061 3.38402 -6.94372 -1.2375 3.56423 -6.35327 -1.94208 3.7525 
-5.5335 -2.76808 3.72468 -4.46306 -3.7362 3.49086 -3.27364 -4.66025 3.30285 
-2.13494 -5.41395 3.18693 -1.13726 -6.01309 2.9838 -0.295109 -6.45918 2.67491 
-8.60004 0.961094 3.19609 -9.42743 1.80874 3.03191 -10.2392 2.69008 2.82188 
-11.0344 3.63357 2.66746 -11.711 4.62144 2.56158 -12.1245 5.54047 2.39974 
-12.3564 6.34946 2.15352 -12.5758 7.03705 1.79657 -12.7426 7.50487 1.29032 
-8.60862 0.202761 3.24034 -9.50369 0.17122 3.1363 -10.4244 0.0292477 2.90072 
-11.2826 -0.256895 2.56418 -11.965 -0.650128 2.22695 -12.4387 -1.14542 1.84516 
-12.7104 -1.77318 1.35421 -12.7771 -2.43805 0.840164 -12.6863 -2.9789 0.366695 
7.32296 -0.336459 2.47777 6.82762 -0.0436435 2.4527 6.11513 0.17622 2.35634 
5.18511 0.272811 2.20064 4.10088 0.334304 2.03084 2.84299 0.462883 1.89205 
1.42835 0.663812 1.81391 0.0678326 0.982497 1.74493 -1.03537 1.47037 1.61463 
7.23134 -1.22134 2.53158 6.69695 -1.86428 2.58784 6.08854 -2.56073 2.65441 
5.4294 -3.26619 2.71521 4.6963 -3.94906 2.74284 3.87513 -4.63702 2.72842 
3.04496 -5.32472 2.6797 2.22996 -5.93124 2.59887 1.35909 -6.40262 2.48569 
8.73302 0.0384857 2.36093 9.84597 0.858762 2.22037 10.9726 1.84996 2.15496 
11.9919 3.05158 2.1698 12.8446 4.3984 2.15928 13.5356 5.74527 2.13728 
13.9712 7.01013 2.11137 14.0737 8.07568 1.8919 13.9266 8.75052 1.37774 
8.65821 -0.562496 2.43679 9.64564 -0.51086 2.41056 10.5681 -0.530429 2.34704 
11.3873 -0.660784 2.19696 12.1208 -0.945622 1.97196 12.6986 -1.40107 1.68512 
13.0653 -1.8945 1.32805 13.3025 -2.25624 0.901599 13.4468 -2.47984 0.419328 
-1.14107 1.84463 -1.77469 -1.24725 2.08376 -1.51547 -1.38205 2.32873 -1.24357 
-1.54325 2.51719 -0.921181 -1.67273 2.63114 -0.490684 -1.7271 2.6994 -0.0186941 
-1.74857 2.69007 0.381808 -1.79025 2.55571 0.727375 -1.84046 2.32656 1.08461 
1.04686 1.29519 -1.70121 3.51491 1.59556 -1.44974 5.75468 2.54613 -1.30874 
7.35929 3.78787 -1.27072 8.66464 5.02964 -1.15869 10.025 6.21793 -0.86236 
11.209 7.25466 -0.512065 12.0891 8.04593 -0.174378 12.8823 8.61916 0.236567 
-2.75527 2.52338 -2.15048 -4.12884 3.61454 -2.1691 -5.37744 4.52946 -1.97264 
-6.69524 5.31881 -1.61151 -7.98318 6.18825 -1.19162 -9.16729 6.94233 -0.79647 
-10.2909 7.40557 -0.445765 -11.2927 7.70073 -0.0828585 -12.1038 7.83189 0.31911 
-0.44148 1.52789 1.17358 1.70976 1.33529 0.995267 4.41649 1.88652 0.993262 
6.93046 3.07682 1.10504 8.76318 4.39694 1.19519 10.1184 5.64139 1.21502 
11.2299 6.80999 1.17285 12.134 7.77255 1.08347 12.9223 8.48533 0.946231 
-2.93995 2.8563 1.51742 -4.0231 3.67876 1.62819 -5.18484 4.54128 1.79815 
-6.2958 5.5145 1.97701 -7.33973 6.4312 2.02485 -8.49346 7.07628 1.90046 
-9.7278 7.52917 1.69697 -10.869 7.86058 1.44057 -11.8754 7.93308 1.09682 
-0.729276 -6.37796 -1.7211 -0.764155 -6.68675 -1.4243 -0.803581 -7.03645 -0.997463 
-0.800826 -7.36884 -0.419506 -0.707779 -7.5476 0.185404 -0.533999 -7.53543 0.725527 
-0.307169 -7.42597 1.22404 -0.0404363 -7.27286 1.6746 0.22372 -7.05225 2.04529 
0.737217 -6.16237 -1.89002 2.2665 -6.26945 -1.91723 3.88224 -6.32469 -2.02482 
5.77641 -6.10669 -2.07846 7.9437 -5.58947 -1.96471 9.86853 -5.02977 -1.68223 
11.1634 -4.50939 -1.2971 12.0412 -3.90184 -0.880081 12.7958 -3.23637 -0.469339 
-2.1388 -6.16674 -1.93584 -3.62365 -6.17243 -1.86776 -5.10479 -6.10175 -1.75068 
-6.55871 -5.97784 -1.61495 -7.98403 -5.81435 -1.48653 -9.30631 -5.59956 -1.33587 
-10.3945 -5.23445 -1.08371 -11.2386 -4.66211 -0.727246 -11.9283 -3.99655 -0.374826 
1.78503 -6.79949 2.13048 3.34496 -6.84032 1.93662 4.98607 -6.76533 1.71614 
6.53363 -6.49023 1.41939 7.99175 -6.081 1.10944 9.39092 -5.54294 0.82318 
10.602 -4.82145 0.533686 11.6199 -4.02506 0.277952 12.5749 -3.2975 0.0882815 
-1.01753 -6.90378 2.37687 -2.64381 -6.9803 2.31162 -4.47127 -6.87709 2.13012 
-6.39878 -6.60907 1.91073 -8.13627 -6.28932 1.68229 -9.4577 -5.89459 1.37081 
-10.4285 -5.32811 0.993229 -11.2266 -4.64317 0.628383 -11.9235 -3.96401 0.27208 
14.5285 9.13336 0.782803 15.1532 8.68123 0.660652 15.4441 7.31673 0.424071 
15.6747 5.3868 0.341869 15.8648 3.56315 0.41983 15.7181 1.98501 0.389614 
15.3196 0.484115 0.247198 14.8592 -0.837314 0.139114 14.2419 -1.8502 0.0455658 
-13.6041 7.13883 0.640729 -14.3735 6.38656 0.537521 -14.8014 5.53658 0.367312 
-14.8954 4.41753 0.114116 -14.9031 2.9115 -0.0827803 -14.7883 1.29192 -0.12092 
-14.3976 -0.184549 -0.137725 -13.8181 -1.45841 -0.190172 -13.1721 -2.49879 -0.177498 
-7.07561 -0.131709 -3.58588 -6.55569 0.316311 -3.53941 -5.66831 -0.612452 -3.54769 
-5.91072 0.724652 -3.4609 -5.052 -0.227348 -3.49866 -3.96243 -1.15932 -3.49163 
-5.1175 1.00257 -3.39599 -4.24196 0.0656189 -3.3915 -3.09032 -0.873937 -3.36345 
-1.77823 -1.63278 -3.28817 -4.16164 1.13635 -3.29257 -3.18672 0.196804 -3.23102 
-1.93491 -0.653383 -3.14652 -0.540627 -1.33484 -3.07565 0.738757 -1.78981 -3.02995 
-3.11507 1.18328 -3.02839 -1.99163 0.275749 -2.96753 -0.621168 -0.421451 -2.91614 
0.830176 -0.945489 -2.87749 2.11739 -1.32294 -2.90367 3.12414 -1.61313 -2.95759 
-2.03808 1.17712 -2.64457 -0.769232 0.410077 -2.61298 0.670833 -0.0796553 -2.66732 
2.12103 -0.385737 -2.74108 3.39368 -0.681478 -2.83463 4.39434 -0.98271 -2.94695 
5.13923 -1.27394 -3.01932 -0.898126 1.15133 -2.28281 0.502047 0.613953 -2.27894 
1.95631 0.334717 -2.40266 3.32199 0.234659 -2.58347 4.51461 0.0838719 -2.74814 
5.5027 -0.200852 -2.89824 6.27394 -0.52298 -2.99913 6.84036 -0.833101 -3.04588 
-9.15057 1.03587 -3.60937 -9.99761 1.89621 -3.47634 -8.73324 1.57369 -3.56097 
-10.7801 2.8762 -3.16703 -9.56953 2.52361 -3.36349 -8.10274 2.06838 -3.39535 
-11.5048 3.94505 -2.73305 -10.3103 3.60464 -2.98693 -8.88068 3.10649 -3.14125 
-7.3143 2.53349 -3.25978 -12.0958 5.03393 -2.21552 -10.9451 4.71505 -2.49994 
-9.55777 4.23601 -2.7438 -8.00966 3.60408 -2.99069 -6.4369 2.91996 -3.25035 
-12.4137 6.0525 -1.60657 -11.4042 5.75919 -1.92389 -10.0975 5.28689 -2.23065 
-8.61141 4.62393 -2.55121 -7.05399 3.89299 -2.93262 -5.51639 3.11747 -3.18142 
-12.4815 6.88493 -0.96043 -11.5893 6.65157 -1.29578 -10.4162 6.20801 -1.63181 
-9.03036 5.51927 -1.97805 -7.55982 4.70858 -2.38258 -6.06475 3.95029 -2.77922 
-4.60294 3.08602 -2.90463 -12.377 7.4748 -0.320733 -11.5274 7.30173 -0.682951 
-10.4593 6.93914 -1.02351 -9.20312 6.32916 -1.37395 -7.86054 5.4734 -1.76185 
-6.46103 4.64597 -2.18236 -5.08069 3.85388 -2.49095 -3.69393 2.86563 -2.51888 
-11.1301 7.93249 0.666027 -9.93277 7.76947 0.975041 -10.1501 7.69826 0.220446 
-8.64815 7.44013 1.22608 -8.86144 7.50221 0.496553 -9.07048 7.3364 -0.179123 
-7.47615 6.9188 1.39923 -7.67512 7.09244 0.680312 -7.89242 7.00702 0.0159712 
-7.99872 6.71833 -0.613259 -6.40583 6.09399 1.457 -6.54604 6.41942 0.761532 
-6.72937 6.42079 0.100132 -6.81379 6.22688 -0.522972 -6.77058 5.86046 -1.10092 
-5.25113 5.11007 1.40427 -5.26613 5.58026 0.818717 -5.33294 5.7489 0.189515 
-5.41348 5.64751 -0.427385 -5.41174 5.41593 -1.01578 -5.38934 5.03281 -1.51558 
-4.05695 4.16662 1.29386 -3.99474 4.65651 0.853872 -3.94076 4.9695 0.332145 
[...]
POINT_DATA 1002
FIELD FieldData 4
_paraPhi 1 1002 double
6.2831853072 3.1415926536 6.2831853072 3.1415926536 4.7123889804 4.7123889804 1.5707963268 1.5707963268 3.6951670125 
5.7296109483 2.5880182947 0.5535743589 6.2831853072 6.2831853072 6.2831853072 6.2831853072 3.1415926536 3.1415926536 
3.1415926536 3.1415926536 3.1415926536 6.1053039672 5.898798347 5.6768734901 5.4599499503 5.2659633393 5.1032165617 
4.9713148346 4.8656852733 4.7809517865 0.17788134 0.38438696014 0.60631181711 0.82323535693 1.0172219679 1.1799687454 
1.3118704726 1.4175000338 1.5022335207 6.1892828907 6.1070320098 6.035312792 5.9728339911 5.9183214791 5.8706119594 
5.8286879411 5.7916808611 5.7588591896 0.093902416448 0.17615329733 0.2478725152 0.31035131605 0.36486382811 0.41257334776 
0.45449736604 0.4915044461 0.52432611754 3.3194739936 3.5259796137 3.7479044707 3.9648280105 4.1588146215 4.321561399 
4.4534631262 4.5590926874 4.6438261743 2.9637113136 2.7572056934 2.5352808365 2.3183572967 2.1243706857 1.9616239082 
1.829722181 1.7240926197 1.6393591329 3.23549507 3.3177459509 3.3894651688 3.4519439696 3.5064564817 3.5541660013 
3.5960900196 3.6330970997 3.6659187711 3.0476902371 2.9654393563 2.8937201384 2.8312413375 2.7767288255 2.7290193058 
2.6870952876 2.6500882075 2.617266536 6.2831853072 6.2831853072 6.2831853072 6.2831853072 3.1415926536 3.1415926536 
3.1415926536 3.1415926536 3.1415926536 6.1053039672 5.898798347 5.6768734901 5.4599499503 5.2659633393 5.1032165617 
4.9713148346 4.8656852733 4.7809517865 0.17788134 0.38438696014 0.60631181711 0.82323535693 1.0172219679 1.1799687454 
1.3118704726 1.4175000338 1.5022335207 6.1892828907 6.1070320098 6.035312792 5.9728339911 5.9183214791 5.8706119594 
5.8286879411 5.7916808611 5.7588591896 0.093902416448 0.17615329733 0.2478725152 0.31035131605 0.36486382811 0.41257334776 
0.45449736604 0.4915044461 0.52432611754 3.3194739936 3.5259796137 3.7479044707 3.9648280105 4.1588146215 4.321561399 
4.4534631262 4.5590926874 4.6438261743 2.9637113136 2.7572056934 2.5352808365 2.3183572967 2.1243706857 1.9616239082 
1.829722181 1.7240926197 1.6393591329 3.23549507 3.3177459509 3.3894651688 3.4519439696 3.5064564817 3.5541660013 
3.5960900196 3.6330970997 3.6659187711 3.0476902371 2.9654393563 2.8937201384 2.8312413375 2.7767288255 2.7290193058 
2.6870952876 2.6500882075 2.617266536 4.7123889804 4.7123889804 4.7123889804 4.7123889804 4.7123889804 4.7123889804 
4.7123889804 4.7123889804 4.7123889804 4.6087898617 4.4991390697 4.3857031936 4.2712800401 4.1588146215 4.0509635631 
3.94975894 3.8564636551 3.7716124825 4.8159880991 4.9256388911 5.0390747672 5.1534979207 5.2659633393 5.3738143976 
5.4750190208 5.5683143056 5.6531654782 4.6087898617 4.4991390697 4.3857031936 4.2712800401 4.1588146215 4.0509635631 
3.94975894 3.8564636551 3.7716124825 4.8159880991 4.9256388911 5.0390747672 5.1534979207 5.2659633393 5.3738143976 
5.4750190208 5.5683143056 5.6531654782 1.5707963268 1.5707963268 1.5707963268 1.5707963268 1.5707963268 1.5707963268 
1.5707963268 1.5707963268 1.5707963268 1.6743954455 1.7840462375 1.8974821136 2.0119052671 2.1243706857 2.232221744 
2.3334263672 2.426721652 2.5115728246 1.4671972081 1.3575464161 1.24411054 1.1296873865 1.0172219679 0.90937090954 
0.80816628637 0.71487100155 0.63001982895 1.6743954455 1.7840462375 1.8974821136 2.0119052671 2.1243706857 2.232221744 
2.3334263672 2.426721652 2.5115728246 1.4671972081 1.3575464161 1.24411054 1.1296873865 1.0172219679 0.90937090954 
0.80816628637 0.71487100155 0.63001982895 3.6007720849 3.4966939854 3.3839471039 3.2645756454 3.1415926536 3.0186096618 
2.8992382033 2.7864913217 2.6824132222 5.8240058758 5.9280839753 6.0408308569 6.1602023154 6.2831853072 0.12298299178 
0.2423544503 0.35510133185 0.45917943135 6.0560271438 5.7885595667 5.9702140275 5.5125918794 5.6029703303 5.7885595667 
5.2659633393 5.2659633393 5.2659633393 5.2659633393 5.0674903122 5.0120975802 4.9155579264 4.7123889804 4.1588146215 
4.9155579264 4.8353719722 4.7123889804 4.5092200343 4.1588146215 3.6362183941 4.8004512023 4.7123889804 4.5894059886 
4.4126803806 4.1588146215 3.8218076305 3.4545639333 4.7123889804 4.6243267584 4.5092200343 4.3572876485 4.1588146215 
3.9121860814 3.6362183941 3.368750817 6.0174235957 5.9434319871 5.8263323547 5.8809213739 5.7674481418 5.6279784266 
5.8278025282 5.718968232 5.5891129425 5.4372443565 5.7823484065 5.678536687 5.5575666702 5.4192596322 5.2659633393 
5.743164462 5.6444075337 5.5314983644 5.4046708639 5.2659633393 5.1195510325 5.7091357773 5.6152775188 5.5096229709 
5.3926039573 5.2659633393 5.1329233157 4.9978930058 5.6793730533 5.5901633916 5.4910209005 5.3824597928 5.2659633393 
5.1440684722 5.0201624502 4.8979782167 5.5683143056 5.4750190208 5.4750190208 5.3738143976 5.3738143976 5.3738143976 
5.2659633393 5.2659633393 5.2659633393 5.2659633393 5.1534979207 5.1534979207 5.1534979207 5.1534979207 5.1534979207 
5.0390747672 5.0390747672 5.0390747672 5.0390747672 5.0390747672 5.0390747672 4.9256388911 4.9256388911 4.9256388911 
4.9256388911 4.9256388911 4.9256388911 4.9256388911 4.8159880991 4.8159880991 4.8159880991 4.8159880991 4.8159880991 
4.8159880991 4.8159880991 4.8159880991 4.6087898617 4.6087898617 4.4991390697 4.6087898617 4.4991390697 4.3857031936 
4.6087898617 4.4991390697 4.3857031936 4.2712800401 4.6087898617 4.4991390697 4.3857031936 4.2712800401 4.1588146215 
4.6087898617 4.4991390697 4.3857031936 4.2712800401 4.1588146215 4.0509635631 4.6087898617 4.4991390697 4.3857031936 
4.2712800401 4.1588146215 4.0509635631 3.94975894 4.6087898617 4.4991390697 4.3857031936 4.2712800401 4.1588146215 
4.0509635631 3.94975894 3.8564636551 4.526799744 4.4046155105 4.426884955 4.2807094886 4.2918546451 4.3052269283 
4.1588146215 4.1588146215 4.1588146215 4.1588146215 4.042318168 4.0321740035 4.0201070968 4.0055183285 3.9875336042 
3.9337570603 3.9151549899 3.8932795963 3.8672112905 3.8356650183 3.7967995342 3.8346145692 3.809500442 3.7803704271 
3.7462412737 3.7058097288 3.657329819 3.5984456061 3.7454049075 3.7156421835 3.6816134988 3.6424295543 3.5969754326 
3.5438565869 3.4813459737 3.4073543651 3.5642842451 3.4524645613 3.5233842518 3.3320300872 3.403123212 3.4773852225 
3.20576226 3.2746326772 3.348015857 3.4255060145 3.0774230472 3.1415926536 3.2112816139 3.2864685043 3.3668817272 
2.95115522 3.00855263 3.0719036933 3.1415926536 3.2178377658 3.3005964304 2.8307207459 2.8800620952 2.9351694502 
2.9967168029 3.0653475414 3.1415926536 3.225752376 2.718901062 2.7598010554 2.8058000847 2.8576792927 2.91630358 
2.9825888767 3.0574329311 3.1415926536 3.5642842451 3.5233842518 3.4524645613 3.4773852225 3.403123212 3.3320300872 
3.4255060145 3.348015857 3.2746326772 3.20576226 3.3668817272 3.2864685043 3.2112816139 3.1415926536 3.0774230472 
3.3005964304 3.2178377658 3.1415926536 3.0719036933 3.00855263 2.95115522 3.225752376 3.1415926536 3.0653475414 
2.9967168029 2.9351694502 2.8800620952 2.8307207459 3.1415926536 3.0574329311 2.9825888767 2.91630358 2.8576792927 
2.8058000847 2.7598010554 2.718901062 4.526799744 4.426884955 4.4046155105 4.3052269283 4.2918546451 4.2807094886 
4.1588146215 4.1588146215 4.1588146215 4.1588146215 3.9875336042 4.0055183285 4.0201070968 4.0321740035 4.042318168 
3.7967995342 3.8356650183 3.8672112905 3.8932795963 3.9151549899 3.9337570603 3.5984456061 3.657329819 3.7058097288 
3.7462412737 3.7803704271 3.809500442 3.8346145692 3.4073543651 3.4813459737 3.5438565869 3.5969754326 3.6424295543 
3.6816134988 3.7156421835 3.7454049075 4.7123889804 4.8004512023 4.6243267584 4.9155579264 4.7123889804 4.5092200343 
5.0674903122 4.8353719722 4.5894059886 4.3572876485 5.2659633393 5.0120975802 4.7123889804 4.4126803806 4.1588146215 
5.5125918794 5.2659633393 4.9155579264 4.5092200343 4.1588146215 3.9121860814 5.7885595667 5.6029703303 5.2659633393 
4.7123889804 4.1588146215 3.8218076305 3.6362183941 6.0560271438 5.9702140275 5.7885595667 5.2659633393 4.1588146215 
3.6362183941 3.4545639333 3.368750817 0.22715816343 0.49462574053 0.3129712797 0.77059342779 0.68021497688 0.49462574053 
1.0172219679 1.0172219679 1.0172219679 1.0172219679 1.2156949949 1.271087727 1.3676273807 1.5707963268 2.1243706857 
1.3676273807 1.447813335 1.5707963268 1.7739652728 2.1243706857 2.6469669131 1.4827341049 1.5707963268 1.6937793186 
1.8705049266 2.1243706857 2.4613776767 2.8286213739 1.5707963268 1.6588585487 1.7739652728 1.9258976586 2.1243706857 
2.3709992258 2.6469669131 2.9144344902 1.7563855631 1.8785697967 1.8563003522 2.0024758186 1.9913306621 1.9779583789 
2.1243706857 2.1243706857 2.1243706857 2.1243706857 2.2408671392 2.2510113037 2.2630782103 2.2776669786 2.295651703 
2.3494282469 2.3680303173 2.3899057108 2.4159740166 2.4475202889 2.486385773 2.448570738 2.4736848652 2.5028148801 
2.5369440334 2.5773755784 2.6258554882 2.6847397011 2.5377803997 2.5675431237 2.6015718084 2.6407557529 2.6862098746 
2.7393287203 2.8018393335 2.8758309421 1.6743954455 1.6743954455 1.7840462375 1.6743954455 1.7840462375 1.8974821136 
1.6743954455 1.7840462375 1.8974821136 2.0119052671 1.6743954455 1.7840462375 1.8974821136 2.0119052671 2.1243706857 
1.6743954455 1.7840462375 1.8974821136 2.0119052671 2.1243706857 2.232221744 1.6743954455 1.7840462375 1.8974821136 
2.0119052671 2.1243706857 2.232221744 2.3334263672 1.6743954455 1.7840462375 1.8974821136 2.0119052671 2.1243706857 
2.232221744 2.3334263672 2.426721652 1.4671972081 1.3575464161 1.4671972081 1.24411054 1.3575464161 1.4671972081 
1.1296873865 1.24411054 1.3575464161 1.4671972081 1.0172219679 1.1296873865 1.24411054 1.3575464161 1.4671972081 
0.90937090954 1.0172219679 1.1296873865 1.24411054 1.3575464161 1.4671972081 0.80816628637 0.90937090954 1.0172219679 
1.1296873865 1.24411054 1.3575464161 1.4671972081 0.71487100155 0.80816628637 0.90937090954 1.0172219679 1.1296873865 
1.24411054 1.3575464161 1.4671972081 0.60381225391 0.57404952988 0.69302191562 0.54002084522 0.66790778838 0.79216440667 
0.50083690068 0.63877777351 0.77356233629 0.90072551443 0.45538277901 0.60464862014 0.75168694275 0.89058134991 1.0172219679 
0.40226393329 0.56421707518 0.72561863695 0.87851444325 1.0172219679 1.139116835 0.33975332011 0.51573716537 0.69407236469 
0.86392567495 1.0172219679 1.1502619915 1.2630228569 0.26576171152 0.45685295248 0.6552068806 0.84594095064 1.0172219679 
1.1636342747 1.2852923014 1.3852070904 0.22715816343 0.3129712797 0.49462574053 0.49462574053 0.68021497688 0.77059342779 
1.0172219679 1.0172219679 1.0172219679 1.0172219679 2.1243706857 1.5707963268 1.3676273807 1.271087727 1.2156949949 
2.6469669131 2.1243706857 1.7739652728 1.5707963268 1.447813335 1.3676273807 2.8286213739 2.4613776767 2.1243706857 
1.8705049266 1.6937793186 1.5707963268 1.4827341049 2.9144344902 2.6469669131 2.3709992258 2.1243706857 1.9258976586 
1.7739652728 1.6588585487 1.5707963268 1.7563855631 1.8563003522 1.8785697967 1.9779583789 1.9913306621 2.0024758186 
2.1243706857 2.1243706857 2.1243706857 2.1243706857 2.295651703 2.2776669786 2.2630782103 2.2510113037 2.2408671392 
2.486385773 2.4475202889 2.4159740166 2.3899057108 2.3680303173 2.3494282469 2.6847397011 2.6258554882 2.5773755784 
2.5369440334 2.5028148801 2.4736848652 2.448570738 2.8758309421 2.8018393335 2.7393287203 2.6862098746 2.6407557529 
2.6015718084 2.5675431237 2.5377803997 5.8604937156 5.901393709 5.9723133995 5.9473927383 6.0216547488 6.0927478736 
5.9992719463 6.0767621038 6.1501452836 6.2190157008 6.0578962336 6.1383094565 6.2134963469 0 0.064169606361 
6.1241815303 6.206940195 6.2831853072 0.069688960264 0.13304002361 0.19043743361 6.1990255847 0 0.07624511221 
0.14487585072 0.20642320337 0.26153055843 0.3108719077 0 0.084159722458 0.15900377685 0.22528907359 0.28391336087 
0.3357925689 0.38179159818 0.42269159155 5.8604937156 5.9723133995 5.901393709 6.0927478736 6.0216547488 5.9473927383 
6.2190157008 6.1501452836 6.0767621038 5.9992719463 0.064169606361 0 6.2134963469 6.1383094565 6.0578962336 
0.19043743361 0.13304002361 0.069688960264 6.2831853072 6.206940195 6.1241815303 0.3108719077 0.26153055843 0.20642320337 
0.14487585072 0.07624511221 6.2831853072 6.1990255847 0.42269159155 0.38179159818 0.3357925689 0.28391336087 0.22528907359 
0.15900377685 0.084159722458 0 5.6793730533 5.7091357773 5.5901633916 5.743164462 5.6152775188 5.4910209005 
5.7823484065 5.6444075337 5.5096229709 5.3824597928 5.8278025282 5.678536687 5.5314983644 5.3926039573 5.2659633393 
5.8809213739 5.718968232 5.5575666702 5.4046708639 5.2659633393 5.1440684722 5.9434319871 5.7674481418 5.5891129425 
5.4192596322 5.2659633393 5.1329233157 5.0201624502 6.0174235957 5.8263323547 5.6279784266 5.4372443565 5.2659633393 
5.1195510325 4.9978930058 4.8979782167 1.3852070904 1.2852923014 1.2630228569 1.1636342747 1.1502619915 1.139116835 
1.0172219679 1.0172219679 1.0172219679 1.0172219679 0.84594095064 0.86392567495 0.87851444325 0.89058134991 0.90072551443 
0.6552068806 0.69407236469 0.72561863695 0.75168694275 0.77356233629 0.79216440667 0.45685295248 0.51573716537 0.56421707518 
0.60464862014 0.63877777351 0.66790778838 0.69302191562 0.26576171152 0.33975332011 0.40226393329 0.45538277901 0.50083690068 
0.54002084522 0.57404952988 0.60381225391 
_paraPhiHalf 1 1002 double
0 3.1415926536 0 3.1415926536 1.5707963268 1.5707963268 1.5707963268 1.5707963268 2.5880182947 
0.5535743589 2.5880182947 0.5535743589 0 0 0 0 3.1415926536 3.1415926536 
3.1415926536 3.1415926536 3.1415926536 0.17788134 0.38438696014 0.60631181711 0.82323535693 1.0172219679 1.1799687454 
1.3118704726 1.4175000338 1.5022335207 0.17788134 0.38438696014 0.60631181711 0.82323535693 1.0172219679 1.1799687454 
1.3118704726 1.4175000338 1.5022335207 0.093902416448 0.17615329733 0.2478725152 0.31035131605 0.36486382811 0.41257334776 
0.45449736604 0.4915044461 0.52432611754 0.093902416448 0.17615329733 0.2478725152 0.31035131605 0.36486382811 0.41257334776 
0.45449736604 0.4915044461 0.52432611754 2.9637113136 2.7572056934 2.5352808365 2.3183572967 2.1243706857 1.9616239082 
1.829722181 1.7240926197 1.6393591329 2.9637113136 2.7572056934 2.5352808365 2.3183572967 2.1243706857 1.9616239082 
1.829722181 1.7240926197 1.6393591329 3.0476902371 2.9654393563 2.8937201384 2.8312413375 2.7767288255 2.7290193058 
2.6870952876 2.6500882075 2.617266536 3.0476902371 2.9654393563 2.8937201384 2.8312413375 2.7767288255 2.7290193058 
2.6870952876 2.6500882075 2.617266536 0 0 0 0 3.1415926536 3.1415926536 
3.1415926536 3.1415926536 3.1415926536 0.17788134 0.38438696014 0.60631181711 0.82323535693 1.0172219679 1.1799687454 
1.3118704726 1.4175000338 1.5022335207 0.17788134 0.38438696014 0.60631181711 0.82323535693 1.0172219679 1.1799687454 
1.3118704726 1.4175000338 1.5022335207 0.093902416448 0.17615329733 0.2478725152 0.31035131605 0.36486382811 0.41257334776 
0.45449736604 0.4915044461 0.52432611754 0.093902416448 0.17615329733 0.2478725152 0.31035131605 0.36486382811 0.41257334776 
0.45449736604 0.4915044461 0.52432611754 2.9637113136 2.7572056934 2.5352808365 2.3183572967 2.1243706857 1.9616239082 
1.829722181 1.7240926197 1.6393591329 2.9637113136 2.7572056934 2.5352808365 2.3183572967 2.1243706857 1.9616239082 
1.829722181 1.7240926197 1.6393591329 3.0476902371 2.9654393563 2.8937201384 2.8312413375 2.7767288255 2.7290193058 
2.6870952876 2.6500882075 2.617266536 3.0476902371 2.9654393563 2.8937201384 2.8312413375 2.7767288255 2.7290193058 
2.6870952876 2.6500882075 2.617266536 1.5707963268 1.5707963268 1.5707963268 1.5707963268 1.5707963268 1.5707963268 
1.5707963268 1.5707963268 1.5707963268 1.6743954455 1.7840462375 1.8974821136 2.0119052671 2.1243706857 2.232221744 
2.3334263672 2.426721652 2.5115728246 1.4671972081 1.3575464161 1.24411054 1.1296873865 1.0172219679 0.90937090954 
0.80816628637 0.71487100155 0.63001982895 1.6743954455 1.7840462375 1.8974821136 2.0119052671 2.1243706857 2.232221744 
2.3334263672 2.426721652 2.5115728246 1.4671972081 1.3575464161 1.24411054 1.1296873865 1.0172219679 0.90937090954 
0.80816628637 0.71487100155 0.63001982895 1.5707963268 1.5707963268 1.5707963268 1.5707963268 1.5707963268 1.5707963268 
1.5707963268 1.5707963268 1.5707963268 1.6743954455 1.7840462375 1.8974821136 2.0119052671 2.1243706857 2.232221744 
2.3334263672 2.426721652 2.5115728246 1.4671972081 1.3575464161 1.24411054 1.1296873865 1.0172219679 0.90937090954 
0.80816628637 0.71487100155 0.63001982895 1.6743954455 1.7840462375 1.8974821136 2.0119052671 2.1243706857 2.232221744 
2.3334263672 2.426721652 2.5115728246 1.4671972081 1.3575464161 1.24411054 1.1296873865 1.0172219679 0.90937090954 
0.80816628637 0.71487100155 0.63001982895 2.6824132222 2.7864913217 2.8992382033 3.0186096618 3.1415926536 3.0186096618 
2.8992382033 2.7864913217 2.6824132222 0.45917943135 0.35510133185 0.2423544503 0.12298299178 0 0.12298299178 
0.2423544503 0.35510133185 0.45917943135 0.22715816343 0.49462574053 0.3129712797 0.77059342779 0.68021497688 0.49462574053 
1.0172219679 1.0172219679 1.0172219679 1.0172219679 1.2156949949 1.271087727 1.3676273807 1.5707963268 2.1243706857 
1.3676273807 1.447813335 1.5707963268 1.7739652728 2.1243706857 2.6469669131 1.4827341049 1.5707963268 1.6937793186 
1.8705049266 2.1243706857 2.4613776767 2.8286213739 1.5707963268 1.6588585487 1.7739652728 1.9258976586 2.1243706857 
2.3709992258 2.6469669131 2.9144344902 0.26576171152 0.33975332011 0.45685295248 0.40226393329 0.51573716537 0.6552068806 
0.45538277901 0.56421707518 0.69407236469 0.84594095064 0.50083690068 0.60464862014 0.72561863695 0.86392567495 1.0172219679 
0.54002084522 0.63877777351 0.75168694275 0.87851444325 1.0172219679 1.1636342747 0.57404952988 0.66790778838 0.77356233629 
0.89058134991 1.0172219679 1.1502619915 1.2852923014 0.60381225391 0.69302191562 0.79216440667 0.90072551443 1.0172219679 
1.139116835 1.2630228569 1.3852070904 0.71487100155 0.80816628637 0.80816628637 0.90937090954 0.90937090954 0.90937090954 
1.0172219679 1.0172219679 1.0172219679 1.0172219679 1.1296873865 1.1296873865 1.1296873865 1.1296873865 1.1296873865 
1.24411054 1.24411054 1.24411054 1.24411054 1.24411054 1.24411054 1.3575464161 1.3575464161 1.3575464161 
1.3575464161 1.3575464161 1.3575464161 1.3575464161 1.4671972081 1.4671972081 1.4671972081 1.4671972081 1.4671972081 
1.4671972081 1.4671972081 1.4671972081 1.6743954455 1.6743954455 1.7840462375 1.6743954455 1.7840462375 1.8974821136 
1.6743954455 1.7840462375 1.8974821136 2.0119052671 1.6743954455 1.7840462375 1.8974821136 2.0119052671 2.1243706857 
1.6743954455 1.7840462375 1.8974821136 2.0119052671 2.1243706857 2.232221744 1.6743954455 1.7840462375 1.8974821136 
2.0119052671 2.1243706857 2.232221744 2.3334263672 1.6743954455 1.7840462375 1.8974821136 2.0119052671 2.1243706857 
2.232221744 2.3334263672 2.426721652 1.7563855631 1.8785697967 1.8563003522 2.0024758186 1.9913306621 1.9779583789 
2.1243706857 2.1243706857 2.1243706857 2.1243706857 2.2408671392 2.2510113037 2.2630782103 2.2776669786 2.295651703 
2.3494282469 2.3680303173 2.3899057108 2.4159740166 2.4475202889 2.486385773 2.448570738 2.4736848652 2.5028148801 
2.5369440334 2.5773755784 2.6258554882 2.6847397011 2.5377803997 2.5675431237 2.6015718084 2.6407557529 2.6862098746 
2.7393287203 2.8018393335 2.8758309421 2.718901062 2.8307207459 2.7598010554 2.95115522 2.8800620952 2.8058000847 
3.0774230472 3.00855263 2.9351694502 2.8576792927 3.0774230472 3.1415926536 3.0719036933 2.9967168029 2.91630358 
2.95115522 3.00855263 3.0719036933 3.1415926536 3.0653475414 2.9825888767 2.8307207459 2.8800620952 2.9351694502 
2.9967168029 3.0653475414 3.1415926536 3.0574329311 2.718901062 2.7598010554 2.8058000847 2.8576792927 2.91630358 
2.9825888767 3.0574329311 3.1415926536 2.718901062 2.7598010554 2.8307207459 2.8058000847 2.8800620952 2.95115522 
2.8576792927 2.9351694502 3.00855263 3.0774230472 2.91630358 2.9967168029 3.0719036933 3.1415926536 3.0774230472 
2.9825888767 3.0653475414 3.1415926536 3.0719036933 3.00855263 2.95115522 3.0574329311 3.1415926536 3.0653475414 