# vtk DataFile Version 5.1
vtk output
ASCII
DATASET POLYDATA
POINTS 1002 float
-10.6601 -0.877115 -1.50002 -17.5224 -16.907 -3.54098 -8.04676 -3.61219 4.39251 
-15.2608 -17.3648 1.69454 -11.1609 -8.79449 -2.52528 -9.45844 -9.63288 0.80867 
-18.2397 -6.95021 0.921117 -17.7039 -8.73134 5.08661 -9.45257 -25.8241 -4.27748 
-0.72925 -0.054207 -0.00406128 -20.0952 -21.9829 -0.513107 -10.6746 3.00467 3.45048 
-11.3835 -1.80704 -1.58976 -12.2432 -2.9207 -1.7039 -13.1833 -4.25835 -1.81813 
-14.1562 -5.86643 -1.90016 -15.1466 -7.73436 -2.04212 -16.078 -9.7671 -2.34394 
-16.8095 -11.8351 -2.68506 -17.265 -13.7864 -2.96078 -17.4797 -15.4879 -3.24136 
-10.3566 -1.19899 -1.77116 -10.0624 -1.65909 -2.03593 -9.76483 -2.26397 -2.27479 
-9.51075 -2.92902 -2.53353 -9.43162 -3.63791 -2.81622 -9.58343 -4.53867 -2.9903 
-9.86669 -5.66226 -2.98261 -10.2116 -6.80501 -2.86754 -10.6469 -7.82968 -2.70716 
-11.4144 -1.16536 -1.27983 -12.2475 -1.54506 -1.02491 -13.1204 -2.0424 -0.722955 
-13.9954 -2.62124 -0.430542 -14.8789 -3.25194 -0.187877 -15.7152 -3.99707 0.0710436 
-16.4191 -4.82989 0.363297 -17.0463 -5.60721 0.609587 -17.6686 -6.29428 0.784605 
-9.7704 -0.18928 -1.58967 -8.76106 0.4756 -1.68135 -7.59193 1.05214 -1.73622 
-6.24752 1.49273 -1.71104 -4.78646 1.75281 -1.61834 -3.40381 1.78027 -1.50462 
-2.3122 1.56665 -1.30897 -1.5431 1.14755 -0.937931 -1.02306 0.578643 -0.456127 
-10.4781 -0.173033 -1.27348 -10.3383 0.575962 -1.01903 -10.2201 1.32437 -0.699744 
-10.15 1.9511 -0.257451 -10.164 2.47553 0.268797 -10.269 2.9597 0.809958 
-10.4432 3.26672 1.43317 -10.5991 3.31581 2.16975 -10.666 3.2055 2.88164 
-17.0858 -16.7652 -3.67346 -16.6064 -16.5226 -3.78695 -16.0715 -16.1461 -3.80738 
-15.4797 -15.592 -3.73536 -14.8917 -14.8726 -3.61948 -14.377 -14.0002 -3.36795 
-13.8552 -12.8588 -2.95255 -13.1474 -11.4222 -2.60916 -12.2083 -9.96048 -2.49671 
-17.9271 -16.1198 -3.22208 -18.2675 -15.1512 -2.85493 -18.5482 -14.0397 -2.45394 
-18.7491 -12.8744 -2.03795 -18.844 -11.7077 -1.57705 -18.837 -10.5597 -1.07615 
-18.7244 -9.50471 -0.570633 -18.5404 -8.58882 -0.0409648 -18.3697 -7.75286 0.483497 
-17.1213 -18.1652 -3.88738 -16.4582 -19.495 -4.15594 -15.5799 -20.8716 -4.36487 
-14.6322 -22.186 -4.63 -13.7173 -23.3869 -4.9639 -12.7765 -24.4651 -5.29239 
-11.7116 -25.2881 -5.53804 -10.6327 -25.745 -5.4993 -9.82424 -25.8922 -5.02776 
-17.7738 -17.7736 -3.62339 -18.0268 -18.6389 -3.64292 -18.2239 -19.4796 -3.53931 
-18.3881 -20.294 -3.31249 -18.6143 -21.0377 -3.0115 -18.8946 -21.5863 -2.64537 
-19.2188 -21.9172 -2.21037 -19.6063 -22.1139 -1.70936 -19.9404 -22.1574 -1.13181 
-8.79742 -4.54455 4.48067 -9.61069 -5.61758 4.60206 -10.5136 -6.82442 4.62541 
-11.5081 -8.17544 4.45046 -12.5751 -9.64776 4.10968 -13.6267 -11.1701 3.59652 
-14.4485 -12.7306 2.95819 -14.9196 -14.3451 2.40567 -15.1444 -15.931 2.01792 
-7.81698 -4.07401 4.17794 -7.63675 -4.61358 3.91988 -7.54023 -5.21277 3.60699 
-7.50055 -5.86261 3.28586 -7.55235 -6.53705 2.92568 -7.76503 -7.18182 2.47741 
-8.09579 -7.80043 2.02062 -8.47653 -8.43755 1.613 -8.92419 -9.06772 1.2155 
-8.7222 -3.76095 4.68855 -9.37293 -3.99365 5.09441 -10.1243 -4.30658 5.46429 
-11.202 -4.72954 5.59014 -12.5554 -5.3335 5.56593 -13.8915 -6.10386 5.59679 
-15.0806 -6.91406 5.61879 -16.135 -7.64243 5.52195 -17.0181 -8.24059 5.33202 
-7.12025 -3.01567 4.19537 -6.13611 -2.4526 3.92183 -5.17717 -1.94063 3.52577 
-4.19698 -1.44726 3.09871 -3.19289 -0.994125 2.68889 -2.33492 -0.677313 2.19085 
-1.64857 -0.474488 1.61395 -1.06952 -0.291698 1.072 -0.726942 -0.138624 0.549194 
-7.72995 -2.78646 4.50403 -7.43769 -1.86202 4.5989 -7.28256 -0.830742 4.60278 
-7.34787 0.190547 4.53391 -7.60066 1.07834 4.44019 -7.98538 1.84811 4.31098 
-8.53577 2.48488 4.16116 -9.25765 2.88135 4.00155 -10.0208 3.02472 3.7743 
-14.8938 -16.9793 1.55844 -14.5525 -16.4515 1.40208 -14.1687 -15.7681 1.29322 
-13.712 -14.9363 1.25416 -13.2087 -13.9794 1.22999 -12.6342 -12.9247 1.19297 
-11.917 -11.8847 1.17441 -11.075 -10.9946 1.14511 -10.2253 -10.2611 1.02604 
-15.6306 -16.8092 1.9979 -16.0353 -16.1377 2.31242 -16.4033 -15.3888 2.69765 
-16.707 -14.6412 3.16901 -16.9916 -13.8286 3.63726 -17.2617 -12.8288 4.01421 
-17.4761 -11.7439 4.31743 -17.6256 -10.726 4.60091 -17.7054 -9.74237 4.86868 
-15.0638 -18.5602 1.26299 -14.7566 -19.8687 0.771251 -14.2523 -21.25 0.300609 
-13.5033 -22.616 -0.155182 -12.6445 -23.8905 -0.707297 -11.8133 -24.9615 -1.33455 
-10.9657 -25.6645 -1.95632 -10.1536 -25.9793 -2.65558 -9.60972 -26.0119 -3.48013 
-15.5895 -18.3718 1.54054 -15.9535 -19.3327 1.37335 -16.3183 -20.248 1.28017 
-16.7812 -21.086 1.2525 -17.4427 -21.7042 1.15082 -18.1656 -22.02 0.924717 
-18.7798 -22.1677 0.645167 -19.3058 -22.2561 0.320457 -19.7649 -22.2156 -0.0777881 
-10.8523 -8.81379 -2.39944 -10.5417 -8.8885 -2.20098 -10.1937 -9.00404 -2.00071 
-9.86366 -9.12808 -1.80431 -9.62854 -9.26593 -1.49861 -9.485 -9.38363 -1.05945 
-9.40769 -9.4439 -0.587012 -9.38143 -9.49844 -0.112909 -9.39499 -9.57624 0.367766 
-12.2776 -10.7371 -2.41449 -12.9695 -13.329 -2.63783 -12.8816 -15.9309 -3.19266 
-12.2017 -17.9527 -3.76858 -11.4856 -19.6084 -4.12351 -10.9272 -21.2284 -4.3484 
-10.3771 -22.6887 -4.55017 -9.84285 -23.9392 -4.6505 -9.49223 -25.0215 -4.56112 
-9.6637 -7.47024 -2.73013 -8.13703 -6.48257 -2.85862 -6.80759 -5.45035 -2.73947 
-5.58431 -4.33232 -2.43775 -4.30262 -3.39641 -2.11163 -3.10141 -2.60802 -1.81398 
-2.16626 -1.85577 -1.4966 -1.45913 -1.20117 -1.07171 -0.955001 -0.619246 -0.537473 
-10.544 -10.6601 0.511324 -11.6275 -12.1711 0.0923608 -12.3443 -14.4438 -0.459755 
-12.3748 -17.2297 -1.06162 -11.7587 -19.6807 -1.60006 -10.899 -21.3836 -2.06971 
-10.1838 -22.7473 -2.54016 -9.69262 -24.0476 -3.06913 -9.41157 -25.1153 -3.67242 
-8.34341 -8.74117 0.782956 -7.14106 -7.87533 0.73592 -5.87505 -7.00397 0.68007 
-4.6491 -6.0847 0.583794 -3.54453 -5.12996 0.463195 -2.52544 -4.1665 0.354323 
-1.62198 -3.16556 0.249116 -0.98897 -2.11764 0.156494 -0.709941 -1.0641 0.0828471 
-18.4664 -6.87235 1.24941 -18.617 -6.81122 1.652 -18.6987 -6.79053 2.21179 
-18.7484 -6.85956 2.8969 -18.7227 -7.03632 3.51569 -18.5778 -7.25824 3.97391 
-18.3892 -7.52046 4.37294 -18.2174 -7.89038 4.73971 -18.0068 -8.33285 4.98358 
-18.853 -8.16541 0.781305 -19.5281 -9.46057 0.571101 -20.2559 -10.7131 0.32003 
-20.8422 -12.0905 0.081807 -21.0767 -13.9846 -0.182741 -21.0631 -16.3001 -0.493182 
-21.0041 -18.4011 -0.701133 -20.8606 -19.9469 -0.710249 -20.5396 -21.0836 -0.611445 
-17.7566 -5.72101 1.21722 -17.173 -4.4428 1.5332 -16.5131 -3.15234 1.90525 
-15.8347 -1.86651 2.25104 -15.131 -0.6534 2.49472 -14.3424 0.422048 2.72686 
-13.4539 1.33715 2.99501 -12.5233 2.0583 3.20991 -11.599 2.59437 3.34743 
-18.3537 -9.89234 4.66699 -19.0947 -11.2517 4.23128 -19.8487 -12.7562 3.82961 
-20.4098 -14.2767 3.40262 -20.7207 -15.8587 2.8423 -20.8722 -17.5055 2.15141 
-20.8616 -18.9468 1.43712 -20.6834 -20.0956 0.749813 -20.4156 -21.1055 0.0893766 
-17.2467 -7.332 5.4015 -16.6688 -5.75823 5.58193 -15.9631 -4.11998 5.60415 
-15.174 -2.4788 5.58246 -14.3803 -0.883405 5.57592 -13.6327 0.409382 5.43152 
-12.8832 1.25494 5.02049 -12.0864 1.88365 4.45413 -11.3188 2.48027 3.91331 
-9.95022 -26.3909 -4.30678 -11.0633 -26.5771 -4.06591 -12.6416 -26.4728 -3.52813 
-14.207 -26.2827 -2.88918 -15.4602 -25.913 -2.36892 -16.6048 -25.2212 -1.94557 
-17.7848 -24.4496 -1.53007 -18.7933 -23.7411 -1.14831 -19.5296 -22.9309 -0.817231 
-0.90175 0.938731 0.233878 -1.35768 1.94326 0.482642 -2.0831 2.76853 0.775325 
-3.03798 3.3379 1.08482 -4.22285 3.72888 1.41477 -5.64898 3.9814 1.87798 
-7.16629 4.04902 2.44842 -8.53823 3.88288 2.92252 -9.68713 3.50003 3.2267 
-11.1665 -2.24344 -1.85909 -10.9339 -2.78189 -2.12009 -12.1111 -3.4589 -1.96935 
-10.6628 -3.39877 -2.36166 -11.9593 -4.04412 -2.21914 -13.1591 -4.91146 -2.07743 
-10.5005 -4.1171 -2.58218 -11.8148 -4.77696 -2.40382 -13.1902 -5.69384 -2.30314 
-14.2803 -6.74387 -2.18345 -10.655 -5.03168 -2.73024 -11.8606 -5.79601 -2.49832 
-13.2821 -6.82602 -2.43043 -14.4927 -7.9355 -2.42555 -15.3443 -8.92989 -2.388 
-11.0561 -6.18439 -2.74611 -12.1897 -7.05984 -2.53863 -13.4504 -8.25926 -2.51946 
-14.6536 -9.48425 -2.60662 -15.5094 -10.4695 -2.67071 -16.1782 -11.2211 -2.69579 
-11.4719 -7.46815 -2.66859 -12.6125 -8.47023 -2.56008 -13.6623 -9.75988 -2.66525 
-14.6684 -11.0688 -2.84309 -15.483 -12.1091 -2.94796 -16.1256 -12.8352 -2.99811 
-16.7292 -13.3694 -3.00769 -11.8445 -8.7422 -2.57321 -12.9398 -9.9653 -2.57557 
-13.8216 -11.31 -2.82447 -14.57 -12.55 -3.13318 -15.2563 -13.5634 -3.29482 
-15.8836 -14.3186 -3.3581 -16.4764 -14.8509 -3.37884 -17.0206 -15.2275 -3.33389 
-9.36522 -0.511654 -1.88847 -8.25442 0.121558 -1.98984 -8.98567 -1.02157 -2.15201 
-6.98077 0.633939 -2.02173 -7.80222 -0.438329 -2.23284 -8.66085 -1.70784 -2.3815 
-5.51582 0.988063 -1.96057 -6.44874 0.0201162 -2.24216 -7.43768 -1.17339 -2.44639 
-8.41894 -2.43476 -2.6646 -4.00243 1.12242 -1.84496 -4.94311 0.262888 -2.16895 
-6.04534 -0.807688 -2.43361 -7.14332 -1.98903 -2.68708 -8.3041 -3.23719 -2.94867 
-2.747 0.968579 -1.68968 -3.53574 0.215004 -2.02512 -4.64519 -0.757149 -2.32719 
-5.8079 -1.80162 -2.57392 -6.99688 -2.9663 -2.85783 -8.36718 -4.29787 -3.07506 
-1.88999 0.556794 -1.41579 -2.49979 -0.111803 -1.802 -3.47222 -0.988841 -2.12869 
-4.67258 -1.93684 -2.3845 -5.87146 -2.93764 -2.62615 -7.14219 -4.18657 -2.92195 
-8.62556 -5.51094 -3.05147 -1.32435 -0.00678671 -0.99956 -1.85334 -0.620541 -1.47483 
-2.64661 -1.38148 -1.84351 -3.76035 -2.24637 -2.13401 -5.03209 -3.12107 -2.38772 
-6.2643 -4.20295 -2.6811 -7.56207 -5.44305 -2.93937 -9.06987 -6.58751 -2.93838 
-1.08579 -1.67057 -0.484237 -1.55212 -2.7765 -0.421326 -1.78537 -2.29758 -1.02025 
-2.31909 -3.8668 -0.317082 -2.42864 -3.42313 -0.932178 -2.66205 -2.97142 -1.41396 
-3.22414 -4.90645 -0.186033 -3.26612 -4.51195 -0.824485 -3.42803 -4.07723 -1.32183 
-3.72852 -3.70792 -1.7467 -4.22398 -5.93909 -0.0339744 -4.16913 -5.62587 -0.708025 
-4.32798 -5.2366 -1.26543 -4.55289 -4.9019 -1.72794 -4.99892 -4.60633 -2.13913 
[...]
POINT_DATA 1002
FIELD FieldData 4
_paraPhi 1 1002 double
6.2831853072 3.1415926536 6.2831853072 3.1415926536 4.7123889804 4.7123889804 1.5707963268 1.5707963268 3.6951670125 
5.7296109483 2.5880182947 0.5535743589 6.2831853072 6.2831853072 6.2831853072 6.2831853072 3.1415926536 3.1415926536 
3.1415926536 3.1415926536 3.1415926536 6.1053039672 5.898798347 5.6768734901 5.4599499503 5.2659633393 5.1032165617 
4.9713148346 4.8656852733 4.7809517865 0.17788134 0.38438696014 0.60631181711 0.82323535693 1.0172219679 1.1799687454 
1.3118704726 1.4175000338 1.5022335207 6.1892828907 6.1070320098 6.035312792 5.9728339911 5.9183214791 5.8706119594 
5.8286879411 5.7916808611 5.7588591896 0.093902416448 0.17615329733 0.2478725152 0.31035131605 0.36486382811 0.41257334776 
0.45449736604 0.4915044461 0.52432611754 3.3194739936 3.5259796137 3.7479044707 3.9648280105 4.1588146215 4.321561399 
4.4534631262 4.5590926874 4.6438261743 2.9637113136 2.7572056934 2.5352808365 2.3183572967 2.1243706857 1.9616239082 
1.829722181 1.7240926197 1.6393591329 3.23549507 3.3177459509 3.3894651688 3.4519439696 3.5064564817 3.5541660013 
3.5960900196 3.6330970997 3.6659187711 3.0476902371 2.9654393563 2.8937201384 2.8312413375 2.7767288255 2.7290193058 
2.6870952876 2.6500882075 2.617266536 6.2831853072 6.2831853072 6.2831853072 6.2831853072 3.1415926536 3.1415926536 
3.1415926536 3.1415926536 3.1415926536 6.1053039672 5.898798347 5.6768734901 5.4599499503 5.2659633393 5.1032165617 
4.9713148346 4.8656852733 4.7809517865 0.17788134 0.38438696014 0.60631181711 0.82323535693 1.0172219679 1.1799687454 
1.3118704726 1.4175000338 1.5022335207 6.1892828907 6.1070320098 6.035312792 5.9728339911 5.9183214791 5.8706119594 
5.8286879411 5.7916808611 5.7588591896 0.093902416448 0.17615329733 0.2478725152 0.31035131605 0.36486382811 0.41257334776 
0.45449736604 0.4915044461 0.52432611754 3.3194739936 3.5259796137 3.7479044707 3.9648280105 4.1588146215 4.321561399 
4.4534631262 4.5590926874 4.6438261743 2.9637113136 2.7572056934 2.5352808365 2.3183572967 2.1243706857 1.9616239082 
1.829722181 1.7240926197 1.6393591329 3.23549507 3.3177459509 3.3894651688 3.4519439696 3.5064564817 3.5541660013 
3.5960900196 3.6330970997 3.6659187711 3.0476902371 2.9654393563 2.8937201384 2.8312413375 2.7767288255 2.7290193058 
2.6870952876 2.6500882075 2.617266536 4.7123889804 4.7123889804 4.7123889804 4.7123889804 4.7123889804 4.7123889804 
4.7123889804 4.7123889804 4.7123889804 4.6087898617 4.4991390697 4.3857031936 4.2712800401 4.1588146215 4.0509635631 
3.94975894 3.8564636551 3.7716124825 4.8159880991 4.9256388911 5.0390747672 5.1534979207 5.2659633393 5.3738143976 
5.4750190208 5.5683143056 5.6531654782 4.6087898617 4.4991390697 4.3857031936 4.2712800401 4.1588146215 4.0509635631 
3.94975894 3.8564636551 3.7716124825 4.8159880991 4.9256388911 5.0390747672 5.1534979207 5.2659633393 5.3738143976 
5.4750190208 5.5683143056 5.6531654782 1.5707963268 1.5707963268 1.5707963268 1.5707963268 1.5707963268 1.5707963268 
1.5707963268 1.5707963268 1.5707963268 1.6743954455 1.7840462375 1.8974821136 2.0119052671 2.1243706857 2.232221744 
2.3334263672 2.426721652 2.5115728246 1.4671972081 1.3575464161 1.24411054 1.1296873865 1.0172219679 0.90937090954 
0.80816628637 0.71487100155 0.63001982895 1.6743954455 1.7840462375 1.8974821136 2.0119052671 2.1243706857 2.232221744 
2.3334263672 2.426721652 2.5115728246 1.4671972081 1.3575464161 1.24411054 1.1296873865 1.0172219679 0.90937090954 
0.80816628637 0.71487100155 0.63001982895 3.6007720849 3.4966939854 3.3839471039 3.2645756454 3.1415926536 3.0186096618 
2.8992382033 2.7864913217 2.6824132222 5.8240058758 5.9280839753 6.0408308569 6.1602023154 6.2831853072 0.12298299178 
0.2423544503 0.35510133185 0.45917943135 6.0560271438 5.7885595667 5.9702140275 5.5125918794 5.6029703303 5.7885595667 
5.2659633393 5.2659633393 5.2659633393 5.2659633393 5.0674903122 5.0120975802 4.9155579264 4.7123889804 4.1588146215 
4.9155579264 4.8353719722 4.7123889804 4.5092200343 4.1588146215 3.6362183941 4.8004512023 4.7123889804 4.5894059886 
4.4126803806 4.1588146215 3.8218076305 3.4545639333 4.7123889804 4.6243267584 4.5092200343 4.3572876485 4.1588146215 
3.9121860814 3.6362183941 3.368750817 6.0174235957 5.9434319871 5.8263323547 5.8809213739 5.7674481418 5.6279784266 
5.8278025282 5.718968232 5.5891129425 5.4372443565 5.7823484065 5.678536687 5.5575666702 5.4192596322 5.2659633393 
5.743164462 5.6444075337 5.5314983644 5.4046708639 5.2659633393 5.1195510325 5.7091357773 5.6152775188 5.5096229709 
5.3926039573 5.2659633393 5.1329233157 4.9978930058 5.6793730533 5.5901633916 5.4910209005 5.3824597928 5.2659633393 
5.1440684722 5.0201624502 4.8979782167 5.5683143056 5.4750190208 5.4750190208 5.3738143976 5.3738143976 5.3738143976 
5.2659633393 5.2659633393 5.2659633393 5.2659633393 5.1534979207 5.1534979207 5.1534979207 5.1534979207 5.1534979207 
5.0390747672 5.0390747672 5.0390747672 5.0390747672 5.0390747672 5.0390747672 4.9256388911 4.9256388911 4.9256388911 
4.9256388911 4.9256388911 4.9256388911 4.9256388911 4.8159880991 4.8159880991 4.8159880991 4.8159880991 4.8159880991 
4.8159880991 4.8159880991 4.8159880991 4.6087898617 4.6087898617 4.4991390697 4.6087898617 4.4991390697 4.3857031936 
4.6087898617 4.4991390697 4.3857031936 4.2712800401 4.6087898617 4.4991390697 4.3857031936 4.2712800401 4.1588146215 
4.6087898617 4.4991390697 4.3857031936 4.2712800401 4.1588146215 4.0509635631 4.6087898617 4.4991390697 4.3857031936 
4.2712800401 4.1588146215 4.0509635631 3.94975894 4.6087898617 4.4991390697 4.3857031936 4.2712800401 4.1588146215 
4.0509635631 3.94975894 3.8564636551 4.526799744 4.4046155105 4.426884955 4.2807094886 4.2918546451 4.3052269283 
4.1588146215 4.1588146215 4.1588146215 4.1588146215 4.042318168 4.0321740035 4.0201070968 4.0055183285 3.9875336042 
3.9337570603 3.9151549899 3.8932795963 3.8672112905 3.8356650183 3.7967995342 3.8346145692 3.809500442 3.7803704271 
3.7462412737 3.7058097288 3.657329819 3.5984456061 3.7454049075 3.7156421835 3.6816134988 3.6424295543 3.5969754326 
3.5438565869 3.4813459737 3.4073543651 3.5642842451 3.4524645613 3.5233842518 3.3320300872 3.403123212 3.4773852225 
3.20576226 3.2746326772 3.348015857 3.4255060145 3.0774230472 3.1415926536 3.2112816139 3.2864685043 3.3668817272 
2.95115522 3.00855263 3.0719036933 3.1415926536 3.2178377658 3.3005964304 2.8307207459 2.8800620952 2.9351694502 
2.9967168029 3.0653475414 3.1415926536 3.225752376 2.718901062 2.7598010554 2.8058000847 2.8576792927 2.91630358 
2.9825888767 3.0574329311 3.1415926536 3.5642842451 3.5233842518 3.4524645613 3.4773852225 3.403123212 3.3320300872 
3.4255060145 3.348015857 3.2746326772 3.20576226 3.3668817272 3.2864685043 3.2112816139 3.1415926536 3.0774230472 
3.3005964304 3.2178377658 3.1415926536 3.0719036933 3.00855263 2.95115522 3.225752376 3.1415926536 3.0653475414 
2.9967168029 2.9351694502 2.8800620952 2.8307207459 3.1415926536 3.0574329311 2.9825888767 2.91630358 2.8576792927 
2.8058000847 2.7598010554 2.718901062 4.526799744 4.426884955 4.4046155105 4.3052269283 4.2918546451 4.2807094886 
4.1588146215 4.1588146215 4.1588146215 4.1588146215 3.9875336042 4.0055183285 4.0201070968 4.0321740035 4.042318168 
3.7967995342 3.8356650183 3.8672112905 3.8932795963 3.9151549899 3.9337570603 3.5984456061 3.657329819 3.7058097288 
3.7462412737 3.7803704271 3.809500442 3.8346145692 3.4073543651 3.4813459737 3.5438565869 3.5969754326 3.6424295543 
3.6816134988 3.7156421835 3.7454049075 4.7123889804 4.8004512023 4.6243267584 4.9155579264 4.7123889804 4.5092200343 
5.0674903122 4.8353719722 4.5894059886 4.3572876485 5.2659633393 5.0120975802 4.7123889804 4.4126803806 4.1588146215 
5.5125918794 5.2659633393 4.9155579264 4.5092200343 4.1588146215 3.9121860814 5.7885595667 5.6029703303 5.2659633393 
4.7123889804 4.1588146215 3.8218076305 3.6362183941 6.0560271438 5.9702140275 5.7885595667 5.2659633393 4.1588146215 
3.6362183941 3.4545639333 3.368750817 0.22715816343 0.49462574053 0.3129712797 0.77059342779 0.68021497688 0.49462574053 
1.0172219679 1.0172219679 1.0172219679 1.0172219679 1.2156949949 1.271087727 1.3676273807 1.5707963268 2.1243706857 
1.3676273807 1.447813335 1.5707963268 1.7739652728 2.1243706857 2.6469669131 1.4827341049 1.5707963268 1.6937793186 
1.8705049266 2.1243706857 2.4613776767 2.8286213739 1.5707963268 1.6588585487 1.7739652728 1.9258976586 2.1243706857 
2.3709992258 2.6469669131 2.9144344902 1.7563855631 1.8785697967 1.8563003522 2.0024758186 1.9913306621 1.9779583789 
2.1243706857 2.1243706857 2.1243706857 2.1243706857 2.2408671392 2.2510113037 2.2630782103 2.2776669786 2.295651703 
2.3494282469 2.3680303173 2.3899057108 2.4159740166 2.4475202889 2.486385773 2.448570738 2.4736848652 2.5028148801 
2.5369440334 2.5773755784 2.6258554882 2.6847397011 2.5377803997 2.5675431237 2.6015718084 2.6407557529 2.6862098746 
2.7393287203 2.8018393335 2.8758309421 1.6743954455 1.6743954455 1.7840462375 1.6743954455 1.7840462375 1.8974821136 
1.6743954455 1.7840462375 1.8974821136 2.0119052671 1.6743954455 1.7840462375 1.8974821136 2.0119052671 2.1243706857 
1.6743954455 1.7840462375 1.8974821136 2.0119052671 2.1243706857 2.232221744 1.6743954455 1.7840462375 1.8974821136 
2.0119052671 2.1243706857 2.232221744 2.3334263672 1.6743954455 1.7840462375 1.8974821136 2.0119052671 2.1243706857 
2.232221744 2.3334263672 2.426721652 1.4671972081 1.3575464161 1.4671972081 1.24411054 1.3575464161 1.4671972081 
1.1296873865 1.24411054 1.3575464161 1.4671972081 1.0172219679 1.1296873865 1.24411054 1.3575464161 1.4671972081 
0.90937090954 1.0172219679 1.1296873865 1.24411054 1.3575464161 1.4671972081 0.80816628637 0.90937090954 1.0172219679 
1.1296873865 1.24411054 1.3575464161 1.4671972081 0.71487100155 0.80816628637 0.90937090954 1.0172219679 1.1296873865 
1.24411054 1.3575464161 1.4671972081 0.60381225391 0.57404952988 0.69302191562 0.54002084522 0.66790778838 0.79216440667 
0.50083690068 0.63877777351 0.77356233629 0.90072551443 0.45538277901 0.60464862014 0.75168694275 0.89058134991 1.0172219679 
0.40226393329 0.56421707518 0.72561863695 0.87851444325 1.0172219679 1.139116835 0.33975332011 0.51573716537 0.69407236469 
0.86392567495 1.0172219679 1.1502619915 1.2630228569 0.26576171152 0.45685295248 0.6552068806 0.84594095064 1.0172219679 
1.1636342747 1.2852923014 1.3852070904 0.22715816343 0.3129712797 0.49462574053 0.49462574053 0.68021497688 0.77059342779 
1.0172219679 1.0172219679 1.0172219679 1.0172219679 2.1243706857 1.5707963268 1.3676273807 1.271087727 1.2156949949 
2.6469669131 2.1243706857 1.7739652728 1.5707963268 1.447813335 1.3676273807 2.8286213739 2.4613776767 2.1243706857 
1.8705049266 1.6937793186 1.5707963268 1.4827341049 2.9144344902 2.6469669131 2.3709992258 2.1243706857 1.9258976586 
1.7739652728 1.6588585487 1.5707963268 1.7563855631 1.8563003522 1.8785697967 1.9779583789 1.9913306621 2.0024758186 
2.1243706857 2.1243706857 2.1243706857 2.1243706857 2.295651703 2.2776669786 2.2630782103 2.2510113037 2.2408671392 
2.486385773 2.4475202889 2.4159740166 2.3899057108 2.3680303173 2.3494282469 2.6847397011 2.6258554882 2.5773755784 
2.5369440334 2.5028148801 2.4736848652 2.448570738 2.8758309421 2.8018393335 2.7393287203 2.6862098746 2.6407557529 
2.6015718084 2.5675431237 2.5377803997 5.8604937156 5.901393709 5.9723133995 5.9473927383 6.0216547488 6.0927478736 
5.9992719463 6.0767621038 6.1501452836 6.2190157008 6.0578962336 6.1383094565 6.2134963469 0 0.064169606361 
6.1241815303 6.206940195 6.2831853072 0.069688960264 0.13304002361 0.19043743361 6.1990255847 0 0.07624511221 
0.14487585072 0.20642320337 0.26153055843 0.3108719077 0 0.084159722458 0.15900377685 0.22528907359 0.28391336087 
0.3357925689 0.38179159818 0.42269159155 5.8604937156 5.9723133995 5.901393709 6.0927478736 6.0216547488 5.9473927383 
6.2190157008 6.1501452836 6.0767621038 5.9992719463 0.064169606361 0 6.2134963469 6.1383094565 6.0578962336 
0.19043743361 0.13304002361 0.069688960264 6.2831853072 6.206940195 6.1241815303 0.3108719077 0.26153055843 0.20642320337 
0.14487585072 0.07624511221 6.2831853072 6.1990255847 0.42269159155 0.38179159818 0.3357925689 0.28391336087 0.22528907359 
0.15900377685 0.084159722458 0 5.6793730533 5.7091357773 5.5901633916 5.743164462 5.6152775188 5.4910209005 
5.7823484065 5.6444075337 5.5096229709 5.3824597928 5.8278025282 5.678536687 5.5314983644 5.3926039573 5.2659633393 
5.8809213739 5.718968232 5.5575666702 5.4046708639 5.2659633393 5.1440684722 5.9434319871 5.7674481418 5.5891129425 
5.4192596322 5.2659633393 5.1329233157 5.0201624502 6.0174235957 5.8263323547 5.6279784266 5.4372443565 5.2659633393 
5.1195510325 4.9978930058 4.8979782167 1.3852070904 1.2852923014 1.2630228569 1.1636342747 1.1502619915 1.139116835 
1.0172219679 1.0172219679 1.0172219679 1.0172219679 0.84594095064 0.86392567495 0.87851444325 0.89058134991 0.90072551443 
0.6552068806 0.69407236469 0.72561863695 0.75168694275 0.77356233629 0.79216440667 0.45685295248 0.51573716537 0.56421707518 
0.60464862014 0.63877777351 0.66790778838 0.69302191562 0.26576171152 0.33975332011 0.40226393329 0.45538277901 0.50083690068 
0.54002084522 0.57404952988 0.60381225391 
_paraPhiHalf 1 1002 double
0 3.1415926536 0 3.1415926536 1.5707963268 1.5707963268 1.5707963268 1.5707963268 2.5880182947 
0.5535743589 2.5880182947 0.5535743589 0 0 0 0 3.1415926536 3.1415926536 
3.1415926536 3.1415926536 3.1415926536 0.17788134 0.38438696014 0.60631181711 0.82323535693 1.0172219679 1.1799687454 
1.3118704726 1.4175000338 1.5022335207 0.17788134 0.38438696014 0.60631181711 0.82323535693 1.0172219679 1.1799687454 
1.3118704726 1.4175000338 1.5022335207 0.093902416448 0.17615329733 0.2478725152 0.31035131605 0.36486382811 0.41257334776 
0.45449736604 0.4915044461 0.52432611754 0.093902416448 0.17615329733 0.2478725152 0.31035131605 0.36486382811 0.41257334776 
0.45449736604 0.4915044461 0.52432611754 2.9637113136 2.7572056934 2.5352808365 2.3183572967 2.1243706857 1.9616239082 
1.829722181 1.7240926197 1.6393591329 2.9637113136 2.7572056934 2.5352808365 2.3183572967 2.1243706857 1.9616239082 
1.829722181 1.7240926197 1.6393591329 3.0476902371 2.9654393563 2.8937201384 2.8312413375 2.7767288255 2.7290193058 
2.6870952876 2.6500882075 2.617266536 3.0476902371 2.9654393563 2.8937201384 2.8312413375 2.7767288255 2.7290193058 
2.6870952876 2.6500882075 2.617266536 0 0 0 0 3.1415926536 3.1415926536 
3.1415926536 3.1415926536 3.1415926536 0.17788134 0.38438696014 0.60631181711 0.82323535693 1.0172219679 1.1799687454 
1.3118704726 1.4175000338 1.5022335207 0.17788134 0.38438696014 0.60631181711 0.82323535693 1.0172219679 1.1799687454 
1.3118704726 1.4175000338 1.5022335207 0.093902416448 0.17615329733 0.2478725152 0.31035131605 0.36486382811 0.41257334776 
0.45449736604 0.4915044461 0.52432611754 0.093902416448 0.17615329733 0.2478725152 0.31035131605 0.36486382811 0.41257334776 
0.45449736604 0.4915044461 0.52432611754 2.9637113136 2.7572056934 2.5352808365 2.3183572967 2.1243706857 1.9616239082 
1.829722181 1.7240926197 1.6393591329 2.9637113136 2.7572056934 2.5352808365 2.3183572967 2.1243706857 1.9616239082 
1.829722181 1.7240926197 1.6393591329 3.0476902371 2.9654393563 2.8937201384 2.8312413375 2.7767288255 2.7290193058 
2.6870952876 2.6500882075 2.617266536 3.0476902371 2.9654393563 2.8937201384 2.8312413375 2.7767288255 2.7290193058 
2.6870952876 2.6500882075 2.617266536 1.5707963268 1.5707963268 1.5707963268 1.5707963268 1.5707963268 1.5707963268 
1.5707963268 1.5707963268 1.5707963268 1.6743954455 1.7840462375 1.8974821136 2.0119052671 2.1243706857 2.232221744 
2.3334263672 2.426721652 2.5115728246 1.4671972081 1.3575464161 1.24411054 1.1296873865 1.0172219679 0.90937090954 
0.80816628637 0.71487100155 0.63001982895 1.6743954455 1.7840462375 1.8974821136 2.0119052671 2.1243706857 2.232221744 
2.3334263672 2.426721652 2.5115728246 1.4671972081 1.3575464161 1.24411054 1.1296873865 1.0172219679 0.90937090954 
0.80816628637 0.71487100155 0.63001982895 1.5707963268 1.5707963268 1.5707963268 1.5707963268 1.5707963268 1.5707963268 
1.5707963268 1.5707963268 1.5707963268 1.6743954455 1.7840462375 1.8974821136 2.0119052671 2.1243706857 2.232221744 
2.3334263672 2.426721652 2.5115728246 1.4671972081 1.3575464161 1.24411054 1.1296873865 1.0172219679 0.90937090954 
0.80816628637 0.71487100155 0.63001982895 1.6743954455 1.7840462375 1.8974821136 2.0119052671 2.1243706857 2.232221744 
2.3334263672 2.426721652 2.5115728246 1.4671972081 1.3575464161 1.24411054 1.1296873865 1.0172219679 0.90937090954 
0.80816628637 0.71487100155 0.63001982895 2.6824132222 2.7864913217 2.8992382033 3.0186096618 3.1415926536 3.0186096618 
2.8992382033 2.7864913217 2.6824132222 0.45917943135 0.35510133185 0.2423544503 0.12298299178 0 0.12298299178 
0.2423544503 0.35510133185 0.45917943135 0.22715816343 0.49462574053 0.3129712797 0.77059342779 0.68021497688 0.49462574053 
1.0172219679 1.0172219679 1.0172219679 1.0172219679 1.2156949949 1.271087727 1.3676273807 1.5707963268 2.1243706857 
1.3676273807 1.447813335 1.5707963268 1.7739652728 2.1243706857 2.6469669131 1.4827341049 1.5707963268 1.6937793186 
1.8705049266 2.1243706857 2.4613776767 2.8286213739 1.5707963268 1.6588585487 1.7739652728 1.9258976586 2.1243706857 
2.3709992258 2.6469669131 2.9144344902 0.26576171152 0.33975332011 0.45685295248 0.40226393329 0.51573716537 0.6552068806 
0.45538277901 0.56421707518 0.69407236469 0.84594095064 0.50083690068 0.60464862014 0.72561863695 0.86392567495 1.0172219679 
0.54002084522 0.63877777351 0.75168694275 0.87851444325 1.0172219679 1.1636342747 0.57404952988 0.66790778838 0.77356233629 
0.89058134991 1.0172219679 1.1502619915 1.2852923014 0.60381225391 0.69302191562 0.79216440667 0.90072551443 1.0172219679 
1.139116835 1.2630228569 1.3852070904 0.71487100155 0.80816628637 0.80816628637 0.90937090954 0.90937090954 0.90937090954 
1.0172219679 1.0172219679 1.0172219679 1.0172219679 1.1296873865 1.1296873865 1.1296873865 1.1296873865 1.1296873865 
1.24411054 1.24411054 1.24411054 1.24411054 1.24411054 1.24411054 1.3575464161 1.3575464161 1.3575464161 
1.3575464161 1.3575464161 1.3575464161 1.3575464161 1.4671972081 1.4671972081 1.4671972081 1.4671972081 1.4671972081 
1.4671972081 1.4671972081 1.4671972081 1.6743954455 1.6743954455 1.7840462375 1.6743954455 1.7840462375 1.8974821136 
1.6743954455 1.7840462375 1.8974821136 2.0119052671 1.6743954455 1.7840462375 1.8974821136 2.0119052671 2.1243706857 
1.6743954455 1.7840462375 1.8974821136 2.0119052671 2.1243706857 2.232221744 1.6743954455 1.7840462375 1.8974821136 
2.0119052671 2.1243706857 2.232221744 2.3334263672 1.6743954455 1.7840462375 1.8974821136 2.0119052671 2.1243706857 
2.232221744 2.3334263672 2.426721652 1.7563855631 1.8785697967 1.8563003522 2.0024758186 1.9913306621 1.9779583789 
2.1243706857 2.1243706857 2.1243706857 2.1243706857 2.2408671392 2.2510113037 2.2630782103 2.2776669786 2.295651703 
2.3494282469 2.3680303173 2.3899057108 2.4159740166 2.4475202889 2.486385773 2.448570738 2.4736848652 2.5028148801 
2.5369440334 2.5773755784 2.6258554882 2.6847397011 2.5377803997 2.5675431237 2.6015718084 2.6407557529 2.6862098746 
2.7393287203 2.8018393335 2.8758309421 2.718901062 2.8307207459 2.7598010554 2.95115522 2.8800620952 2.8058000847 
3.0774230472 3.00855263 2.9351694502 2.8576792927 3.0774230472 3.1415926536 3.0719036933 2.9967168029 2.91630358 
2.95115522 3.00855263 3.0719036933 3.1415926536 3.0653475414 2.9825888767 2.8307207459 2.8800620952 2.9351694502 
2.9967168029 3.0653475414 3.1415926536 3.0574329311 2.718901062 2.7598010554 2.8058000847 2.8576792927 2.91630358 
2.9825888767 3.0574329311 3.1415926536 2.718901062 2.7598010554 2.8307207459 2.8058000847 2.8800620952 2.95115522 
2.8576792927 2.9351694502 3.00855263 3.0774230472 2.91630358 2.9967168029 3.0719036933 3.1415926536 3.0774230472 
2.9825888767 3.0653475414 3.1415926536 3.0719036933 3.00855263 2.95115522 3.0574329311 3.1415926536 3.0653475414 