# vtk DataFile Version 5.1
vtk output
ASCII
DATASET POLYDATA
POINTS 1002 float
-8.58014 -0.317264 -3.52448 8.83814 -0.618921 -3.08738 -8.05762 0.310418 3.49089 
7.93708 -0.55436 2.57843 -0.962132 1.8454 -2.38333 -1.5431 2.27929 1.44175 
-0.647476 -6.0313 -2.18227 0.584334 -6.64195 2.16712 14.6069 9.06593 0.704363 
-13.3395 7.59144 0.989296 13.9265 -2.72138 0.148007 -13.029 -3.53757 -0.0693894 
-7.45004 -0.612366 -3.61853 -6.14855 -0.964655 -3.71246 -4.64573 -1.36906 -3.78725 
-2.82698 -1.73138 -3.73614 -0.660932 -1.94142 -3.55583 1.65497 -1.96656 -3.3944 
3.87157 -1.81379 -3.29238 5.837 -1.50105 -3.20203 7.48446 -1.08335 -3.13603 
-8.32948 0.142387 -3.57673 -7.99043 0.604572 -3.6351 -7.52701 1.0979 -3.64998 
-6.92372 1.64116 -3.52006 -6.19898 2.14544 -3.32638 -5.33939 2.4689 -3.2852 
-4.3112 2.54663 -3.30901 -3.16843 2.40097 -3.13419 -2.03015 2.12289 -2.76655 
-8.10461 -0.975238 -3.52573 -7.53123 -1.67274 -3.47606 -6.86218 -2.39332 -3.37924 
-6.1136 -3.14277 -3.32171 -5.28888 -3.87726 -3.28467 -4.3692 -4.49817 -3.12315 
-3.38437 -4.98695 -2.8715 -2.41331 -5.40193 -2.65146 -1.49943 -5.75604 -2.43373 
-9.50614 0.294972 -3.42928 -10.457 1.02442 -3.2809 -11.4086 1.87367 -3.06096 
-12.3226 2.85225 -2.7309 -13.1434 3.98687 -2.2647 -13.7695 5.18962 -1.70278 
-14.087 6.22574 -1.09159 -14.0688 6.94623 -0.418708 -13.7836 7.38024 0.304309 
-9.35962 -0.447576 -3.39686 -10.1154 -0.614398 -3.20951 -10.8387 -0.832669 -3.01427 
-11.536 -1.13867 -2.82373 -12.1369 -1.51609 -2.52936 -12.5736 -1.9188 -2.10982 
-12.8791 -2.37202 -1.66169 -13.0775 -2.8672 -1.17868 -13.1315 -3.28391 -0.62738 
8.57489 -0.216706 -3.07764 8.21274 0.166524 -3.08532 7.6881 0.487766 -3.08088 
6.99841 0.786424 -2.96462 6.19069 1.06616 -2.73426 5.14841 1.22356 -2.51528 
3.6961 1.24384 -2.39983 1.97434 1.26321 -2.38636 0.345772 1.43674 -2.40623 
8.22153 -1.31006 -3.11898 7.43573 -2.01329 -3.11529 6.50725 -2.72013 -3.08411 
5.47123 -3.39626 -3.055 4.35352 -4.01804 -3.00922 3.21084 -4.57933 -2.90986 
2.12644 -5.05501 -2.7737 1.13326 -5.43946 -2.61115 0.211101 -5.7589 -2.40858 
9.92811 0.195183 -2.98665 11.0323 1.2149 -2.75599 12.1481 2.41726 -2.39142 
13.1573 3.71328 -2.01627 13.9486 4.98203 -1.72705 14.564 6.18732 -1.5057 
14.9766 7.37706 -1.25749 15.0585 8.42745 -0.808002 14.8706 9.03474 -0.0906701 
9.77513 -0.553336 -3.02098 10.7342 -0.454386 -2.85006 11.6223 -0.371922 -2.58334 
12.4302 -0.412505 -2.28586 13.1441 -0.596342 -1.94092 13.6321 -0.871792 -1.52723 
13.9043 -1.25369 -1.12443 14.0885 -1.7504 -0.735505 14.1312 -2.27379 -0.299702 
-6.93394 -0.159103 3.50709 -5.62267 -0.637926 3.55541 -4.11207 -1.07589 3.56198 
-2.42101 -1.45201 3.39735 -0.574175 -1.74749 3.09757 1.35605 -1.87015 2.82674 
3.2435 -1.73663 2.65461 4.99759 -1.40371 2.5746 6.57327 -0.987983 2.56458 
-7.72661 0.691437 3.43264 -7.3071 1.08887 3.38115 -6.74714 1.4469 3.29002 
-6.10172 1.74241 3.11058 -5.43097 1.99462 2.85504 -4.70505 2.19757 2.60436 
-3.91169 2.33251 2.38642 -3.09561 2.40173 2.13093 -2.29728 2.38783 1.80169 
-7.71317 -0.329698 3.60469 -7.3336 -0.975177 3.77056 -6.80673 -1.70325 3.79924 
-5.96434 -2.60187 3.53324 -4.83151 -3.5705 3.17257 -3.59547 -4.43153 2.97895 
-2.36325 -5.17443 2.86804 -1.20187 -5.82061 2.68249 -0.208943 -6.3124 2.43184 
-8.92184 1.03508 3.44959 -9.78918 1.83943 3.3705 -10.6088 2.68414 3.21309 
-11.3646 3.56351 3.03207 -12.0308 4.47248 2.85922 -12.5599 5.35759 2.66137 
-12.9655 6.15446 2.42121 -13.2527 6.82518 2.08124 -13.3755 7.3235 1.58329 
-8.95592 0.350398 3.51262 -9.96678 0.328269 3.45102 -11.0115 0.178901 3.25576 
-11.9508 -0.151016 2.94883 -12.699 -0.613499 2.55525 -13.2347 -1.1183 2.07219 
-13.5097 -1.71009 1.54347 -13.5073 -2.4256 1.00993 -13.3144 -3.09695 0.465621 
7.49188 -0.270029 2.52536 6.9064 -0.0392514 2.40988 6.13207 0.151826 2.25285 
5.19232 0.32904 2.12302 4.12681 0.490838 2.01082 2.91159 0.646112 1.86255 
1.61581 0.874713 1.74594 0.409817 1.25259 1.69527 -0.637501 1.74976 1.60799 
7.52053 -1.15546 2.60938 7.03975 -1.79635 2.69063 6.49249 -2.47961 2.77235 
5.84956 -3.21856 2.73303 5.10026 -3.95642 2.65104 4.30331 -4.61484 2.67927 
3.49296 -5.21824 2.68636 2.60363 -5.80097 2.53395 1.60593 -6.29809 2.32969 
8.96973 0.13464 2.55834 10.0438 0.945739 2.48705 11.1649 1.86715 2.41089 
12.2576 2.94092 2.3995 13.2077 4.17203 2.41204 14.0119 5.43503 2.42082 
14.6009 6.6459 2.38296 14.8304 7.77344 2.09546 14.7705 8.64529 1.47213 
8.96114 -0.499091 2.58808 9.96457 -0.497631 2.56814 10.9023 -0.560309 2.53533 
11.7832 -0.728587 2.49184 12.593 -1.06173 2.36709 13.212 -1.5277 2.07513 
13.6042 -1.98704 1.64812 13.8651 -2.33609 1.17232 13.9963 -2.57042 0.669252 
-1.0506 2.04114 -2.13586 -1.18355 2.28213 -1.87677 -1.35238 2.55192 -1.54564 
-1.52873 2.81144 -1.16495 -1.63474 3.00791 -0.779821 -1.65802 3.0574 -0.317159 
-1.66909 2.92796 0.213652 -1.66702 2.71255 0.687584 -1.6158 2.49882 1.08464 
1.06441 1.52466 -2.03384 3.55116 1.91561 -1.70487 5.94056 2.99638 -1.52152 
7.75501 4.29561 -1.44027 9.25878 5.45132 -1.23861 10.8154 6.47768 -0.85717 
12.1932 7.44279 -0.476781 13.1972 8.29601 -0.148212 13.9729 8.89214 0.239163 
-2.57734 2.7608 -2.45931 -4.01261 3.87266 -2.32177 -5.57607 4.73585 -2.01985 
-7.20424 5.37999 -1.64836 -8.5667 6.09951 -1.22592 -9.72765 6.81482 -0.767351 
-10.8456 7.34459 -0.303837 -11.8259 7.69161 0.161537 -12.6393 7.796 0.607528 
-0.136812 1.83641 1.18194 1.72956 1.64726 0.951105 4.1805 2.0267 0.883725 
6.88697 3.05221 1.03012 9.14368 4.42667 1.22015 10.7143 5.74131 1.27055 
11.9594 6.84988 1.2496 13.0597 7.83181 1.22816 13.9361 8.64037 1.07314 
-2.83046 2.95367 1.46393 -4.11955 3.69585 1.49463 -5.37337 4.51816 1.60027 
-6.55023 5.42724 1.77745 -7.72219 6.22686 1.9001 -8.97292 6.80504 1.8754 
-10.2161 7.3069 1.7642 -11.3503 7.70796 1.61524 -12.3905 7.80686 1.3665 
-0.656851 -6.34395 -1.87213 -0.687299 -6.68663 -1.56296 -0.706213 -7.0289 -1.18575 
-0.631178 -7.27688 -0.632516 -0.452741 -7.3786 -0.0242674 -0.269287 -7.3681 0.489956 
-0.101407 -7.28326 0.989477 0.115754 -7.13973 1.48878 0.369031 -6.93195 1.88201 
0.766936 -6.10539 -2.0827 2.28984 -6.19953 -2.05154 3.80234 -6.3297 -2.09874 
5.39843 -6.28849 -2.11547 7.36377 -5.81674 -1.9827 9.53964 -5.09489 -1.69179 
11.3061 -4.47709 -1.27816 12.449 -3.93647 -0.78723 13.2551 -3.33378 -0.293711 
-2.02525 -6.12558 -2.11195 -3.46977 -6.18255 -2.0253 -4.97169 -6.18368 -1.90951 
-6.51585 -6.11887 -1.76713 -7.96847 -5.95706 -1.56819 -9.22979 -5.65157 -1.27221 
-10.3645 -5.21417 -0.932415 -11.4 -4.7121 -0.630354 -12.2884 -4.16441 -0.356571 
1.97676 -6.73734 1.97834 3.57038 -6.80746 1.81461 5.31276 -6.7795 1.71389 
6.9776 -6.58115 1.5913 8.51602 -6.20273 1.36463 9.99686 -5.65807 1.07602 
11.2678 -4.9911 0.791176 12.2665 -4.25727 0.53709 13.1446 -3.48822 0.326723 
-0.949085 -6.71676 2.14281 -2.69851 -6.74787 1.98948 -4.60517 -6.72022 1.76388 
-6.5178 -6.58245 1.62146 -8.30616 -6.33496 1.50816 -9.80019 -6.00461 1.26555 
-10.8619 -5.52318 0.950578 -11.6461 -4.86635 0.63939 -12.3723 -4.16674 0.294513 
15.2759 8.83511 0.694348 15.7919 7.86219 0.658571 16.1718 6.25503 0.678861 
16.4865 4.55657 0.744562 16.5365 3.13597 0.718191 16.1945 1.78201 0.591177 
15.7644 0.36546 0.485807 15.3431 -0.875362 0.406549 14.721 -1.86141 0.292644 
-14.2853 7.04393 0.894696 -15.0752 6.26882 0.772285 -15.5108 5.32344 0.661644 
-15.6638 4.18366 0.450481 -15.6695 2.80936 0.129632 -15.4577 1.25411 -0.0489154 
-15.0275 -0.301609 -0.0350246 -14.4732 -1.63937 -0.032409 -13.7967 -2.68968 -0.0732402 
-7.10745 -0.181577 -3.67618 -6.64763 0.245464 -3.74798 -5.68347 -0.57541 -3.76764 
-6.03038 0.688327 -3.74168 -5.03874 -0.208199 -3.8157 -3.96159 -1.01741 -3.7723 
-5.32059 1.13771 -3.5662 -4.22285 0.118394 -3.78642 -3.04843 -0.70912 -3.7395 
-1.84784 -1.38142 -3.6051 -4.55286 1.49039 -3.38529 -3.33727 0.397953 -3.62264 
-1.95951 -0.468123 -3.69611 -0.670811 -1.05594 -3.50142 0.553416 -1.53869 -3.37968 
-3.57635 1.645 -3.32828 -2.29517 0.626945 -3.39195 -0.694619 -0.209682 -3.50911 
0.715307 -0.725269 -3.43125 1.90904 -1.09589 -3.26289 2.99932 -1.46023 -3.2407 
-2.31503 1.61391 -3.18781 -0.943702 0.820537 -3.12045 0.801247 0.172903 -3.12762 
2.32746 -0.246649 -3.18481 3.44954 -0.550047 -3.17155 4.42098 -0.85143 -3.14389 
5.2501 -1.17105 -3.16577 -0.942698 1.50236 -2.8328 0.571118 1.01735 -2.7692 
2.35275 0.681373 -2.71496 3.90867 0.438983 -2.79695 4.99276 0.185698 -2.96545 
5.83395 -0.101832 -3.08434 6.5673 -0.399376 -3.1127 7.11503 -0.727892 -3.1173 
-9.27749 0.817673 -3.48399 -10.2464 1.63114 -3.30174 -8.94645 1.3624 -3.51043 
-11.1969 2.60525 -2.99047 -9.92913 2.28836 -3.26441 -8.47823 1.95783 -3.45936 
-12.0688 3.72871 -2.5403 -10.8554 3.38657 -2.87484 -9.43961 2.94573 -3.184 
-7.80364 2.54292 -3.31112 -12.7667 4.91691 -1.97889 -11.5981 4.56627 -2.33652 
-10.2681 4.04136 -2.75429 -8.6419 3.44223 -3.05961 -6.88947 2.98716 -3.19587 
-13.1702 6.00088 -1.36809 -12.0552 5.65636 -1.70529 -10.8009 5.14721 -2.13702 
-9.33025 4.40424 -2.56727 -7.54951 3.74491 -2.91095 -5.80816 3.24301 -3.17058 
-13.2313 6.85615 -0.733895 -12.2068 6.55091 -1.07351 -11.0115 6.10506 -1.47995 
-9.71651 5.39816 -1.91148 -8.16067 4.58016 -2.33176 -6.33765 3.95523 -2.73968 
-4.67337 3.29822 -3.05633 -13.0158 7.45758 -0.0627141 -12.103 7.2417 -0.455518 
-10.9997 6.84341 -0.879784 -9.80039 6.23978 -1.31535 -8.50814 5.43524 -1.73487 
-6.88739 4.7086 -2.14332 -5.1276 4.0353 -2.53089 -3.57833 3.12018 -2.77821 
-11.6302 7.88859 0.904022 -10.4935 7.63355 1.09314 -10.7255 7.65106 0.374534 
-9.23878 7.16318 1.21923 -9.48387 7.30002 0.522126 -9.65806 7.18522 -0.144373 
-7.94964 6.67392 1.3052 -8.18611 6.83744 0.614337 -8.38513 6.77239 -0.0264944 
-8.50387 6.53151 -0.660132 -6.70607 6.04306 1.33324 -6.87582 6.35283 0.690605 
-7.04745 6.31643 0.0551997 -7.14396 6.1125 -0.568374 -7.19972 5.82129 -1.17279 
-5.46575 5.15281 1.29617 -5.51247 5.64485 0.791368 -5.59674 5.79971 0.166443 
-5.65207 5.69843 -0.462333 -5.64314 5.50826 -1.09211 -5.63813 5.20373 -1.61443 
-4.19543 4.18702 1.2123 -4.16592 4.67519 0.833343 -4.15497 5.00006 0.275758 
[...]
POINT_DATA 1002
FIELD FieldData 4
_paraPhi 1 1002 double
6.2831853072 3.1415926536 6.2831853072 3.1415926536 4.7123889804 4.7123889804 1.5707963268 1.5707963268 3.6951670125 
5.7296109483 2.5880182947 0.5535743589 6.2831853072 6.2831853072 6.2831853072 6.2831853072 3.1415926536 3.1415926536 
3.1415926536 3.1415926536 3.1415926536 6.1053039672 5.898798347 5.6768734901 5.4599499503 5.2659633393 5.1032165617 
4.9713148346 4.8656852733 4.7809517865 0.17788134 0.38438696014 0.60631181711 0.82323535693 1.0172219679 1.1799687454 
1.3118704726 1.4175000338 1.5022335207 6.1892828907 6.1070320098 6.035312792 5.9728339911 5.9183214791 5.8706119594 
5.8286879411 5.7916808611 5.7588591896 0.093902416448 0.17615329733 0.2478725152 0.31035131605 0.36486382811 0.41257334776 
0.45449736604 0.4915044461 0.52432611754 3.3194739936 3.5259796137 3.7479044707 3.9648280105 4.1588146215 4.321561399 
4.4534631262 4.5590926874 4.6438261743 2.9637113136 2.7572056934 2.5352808365 2.3183572967 2.1243706857 1.9616239082 
1.829722181 1.7240926197 1.6393591329 3.23549507 3.3177459509 3.3894651688 3.4519439696 3.5064564817 3.5541660013 
3.5960900196 3.6330970997 3.6659187711 3.0476902371 2.9654393563 2.8937201384 2.8312413375 2.7767288255 2.7290193058 
2.6870952876 2.6500882075 2.617266536 6.2831853072 6.2831853072 6.2831853072 6.2831853072 3.1415926536 3.1415926536 
3.1415926536 3.1415926536 3.1415926536 6.1053039672 5.898798347 5.6768734901 5.4599499503 5.2659633393 5.1032165617 
4.9713148346 4.8656852733 4.7809517865 0.17788134 0.38438696014 0.60631181711 0.82323535693 1.0172219679 1.1799687454 
1.3118704726 1.4175000338 1.5022335207 6.1892828907 6.1070320098 6.035312792 5.9728339911 5.9183214791 5.8706119594 
5.8286879411 5.7916808611 5.7588591896 0.093902416448 0.17615329733 0.2478725152 0.31035131605 0.36486382811 0.41257334776 
0.45449736604 0.4915044461 0.52432611754 3.3194739936 3.5259796137 3.7479044707 3.9648280105 4.1588146215 4.321561399 
4.4534631262 4.5590926874 4.6438261743 2.9637113136 2.7572056934 2.5352808365 2.3183572967 2.1243706857 1.9616239082 
1.829722181 1.7240926197 1.6393591329 3.23549507 3.3177459509 3.3894651688 3.4519439696 3.5064564817 3.5541660013 
3.5960900196 3.6330970997 3.6659187711 3.0476902371 2.9654393563 2.8937201384 2.8312413375 2.7767288255 2.7290193058 
2.6870952876 2.6500882075 2.617266536 4.7123889804 4.7123889804 4.7123889804 4.7123889804 4.7123889804 4.7123889804 
4.7123889804 4.7123889804 4.7123889804 4.6087898617 4.4991390697 4.3857031936 4.2712800401 4.1588146215 4.0509635631 
3.94975894 3.8564636551 3.7716124825 4.8159880991 4.9256388911 5.0390747672 5.1534979207 5.2659633393 5.3738143976 
5.4750190208 5.5683143056 5.6531654782 4.6087898617 4.4991390697 4.3857031936 4.2712800401 4.1588146215 4.0509635631 
3.94975894 3.8564636551 3.7716124825 4.8159880991 4.9256388911 5.0390747672 5.1534979207 5.2659633393 5.3738143976 
5.4750190208 5.5683143056 5.6531654782 1.5707963268 1.5707963268 1.5707963268 1.5707963268 1.5707963268 1.5707963268 
1.5707963268 1.5707963268 1.5707963268 1.6743954455 1.7840462375 1.8974821136 2.0119052671 2.1243706857 2.232221744 
2.3334263672 2.426721652 2.5115728246 1.4671972081 1.3575464161 1.24411054 1.1296873865 1.0172219679 0.90937090954 
0.80816628637 0.71487100155 0.63001982895 1.6743954455 1.7840462375 1.8974821136 2.0119052671 2.1243706857 2.232221744 
2.3334263672 2.426721652 2.5115728246 1.4671972081 1.3575464161 1.24411054 1.1296873865 1.0172219679 0.90937090954 
0.80816628637 0.71487100155 0.63001982895 3.6007720849 3.4966939854 3.3839471039 3.2645756454 3.1415926536 3.0186096618 
2.8992382033 2.7864913217 2.6824132222 5.8240058758 5.9280839753 6.0408308569 6.1602023154 6.2831853072 0.12298299178 
0.2423544503 0.35510133185 0.45917943135 6.0560271438 5.7885595667 5.9702140275 5.5125918794 5.6029703303 5.7885595667 
5.2659633393 5.2659633393 5.2659633393 5.2659633393 5.0674903122 5.0120975802 4.9155579264 4.7123889804 4.1588146215 
4.9155579264 4.8353719722 4.7123889804 4.5092200343 4.1588146215 3.6362183941 4.8004512023 4.7123889804 4.5894059886 
4.4126803806 4.1588146215 3.8218076305 3.4545639333 4.7123889804 4.6243267584 4.5092200343 4.3572876485 4.1588146215 
3.9121860814 3.6362183941 3.368750817 6.0174235957 5.9434319871 5.8263323547 5.8809213739 5.7674481418 5.6279784266 
5.8278025282 5.718968232 5.5891129425 5.4372443565 5.7823484065 5.678536687 5.5575666702 5.4192596322 5.2659633393 
5.743164462 5.6444075337 5.5314983644 5.4046708639 5.2659633393 5.1195510325 5.7091357773 5.6152775188 5.5096229709 
5.3926039573 5.2659633393 5.1329233157 4.9978930058 5.6793730533 5.5901633916 5.4910209005 5.3824597928 5.2659633393 
5.1440684722 5.0201624502 4.8979782167 5.5683143056 5.4750190208 5.4750190208 5.3738143976 5.3738143976 5.3738143976 
5.2659633393 5.2659633393 5.2659633393 5.2659633393 5.1534979207 5.1534979207 5.1534979207 5.1534979207 5.1534979207 
5.0390747672 5.0390747672 5.0390747672 5.0390747672 5.0390747672 5.0390747672 4.9256388911 4.9256388911 4.9256388911 
4.9256388911 4.9256388911 4.9256388911 4.9256388911 4.8159880991 4.8159880991 4.8159880991 4.8159880991 4.8159880991 
4.8159880991 4.8159880991 4.8159880991 4.6087898617 4.6087898617 4.4991390697 4.6087898617 4.4991390697 4.3857031936 
4.6087898617 4.4991390697 4.3857031936 4.2712800401 4.6087898617 4.4991390697 4.3857031936 4.2712800401 4.1588146215 
4.6087898617 4.4991390697 4.3857031936 4.2712800401 4.1588146215 4.0509635631 4.6087898617 4.4991390697 4.3857031936 
4.2712800401 4.1588146215 4.0509635631 3.94975894 4.6087898617 4.4991390697 4.3857031936 4.2712800401 4.1588146215 
4.0509635631 3.94975894 3.8564636551 4.526799744 4.4046155105 4.426884955 4.2807094886 4.2918546451 4.3052269283 
4.1588146215 4.1588146215 4.1588146215 4.1588146215 4.042318168 4.0321740035 4.0201070968 4.0055183285 3.9875336042 
3.9337570603 3.9151549899 3.8932795963 3.8672112905 3.8356650183 3.7967995342 3.8346145692 3.809500442 3.7803704271 
3.7462412737 3.7058097288 3.657329819 3.5984456061 3.7454049075 3.7156421835 3.6816134988 3.6424295543 3.5969754326 
3.5438565869 3.4813459737 3.4073543651 3.5642842451 3.4524645613 3.5233842518 3.3320300872 3.403123212 3.4773852225 
3.20576226 3.2746326772 3.348015857 3.4255060145 3.0774230472 3.1415926536 3.2112816139 3.2864685043 3.3668817272 
2.95115522 3.00855263 3.0719036933 3.1415926536 3.2178377658 3.3005964304 2.8307207459 2.8800620952 2.9351694502 
2.9967168029 3.0653475414 3.1415926536 3.225752376 2.718901062 2.7598010554 2.8058000847 2.8576792927 2.91630358 
2.9825888767 3.0574329311 3.1415926536 3.5642842451 3.5233842518 3.4524645613 3.4773852225 3.403123212 3.3320300872 
3.4255060145 3.348015857 3.2746326772 3.20576226 3.3668817272 3.2864685043 3.2112816139 3.1415926536 3.0774230472 
3.3005964304 3.2178377658 3.1415926536 3.0719036933 3.00855263 2.95115522 3.225752376 3.1415926536 3.0653475414 
2.9967168029 2.9351694502 2.8800620952 2.8307207459 3.1415926536 3.0574329311 2.9825888767 2.91630358 2.8576792927 
2.8058000847 2.7598010554 2.718901062 4.526799744 4.426884955 4.4046155105 4.3052269283 4.2918546451 4.2807094886 
4.1588146215 4.1588146215 4.1588146215 4.1588146215 3.9875336042 4.0055183285 4.0201070968 4.0321740035 4.042318168 
3.7967995342 3.8356650183 3.8672112905 3.8932795963 3.9151549899 3.9337570603 3.5984456061 3.657329819 3.7058097288 
3.7462412737 3.7803704271 3.809500442 3.8346145692 3.4073543651 3.4813459737 3.5438565869 3.5969754326 3.6424295543 
3.6816134988 3.7156421835 3.7454049075 4.7123889804 4.8004512023 4.6243267584 4.9155579264 4.7123889804 4.5092200343 
5.0674903122 4.8353719722 4.5894059886 4.3572876485 5.2659633393 5.0120975802 4.7123889804 4.4126803806 4.1588146215 
5.5125918794 5.2659633393 4.9155579264 4.5092200343 4.1588146215 3.9121860814 5.7885595667 5.6029703303 5.2659633393 
4.7123889804 4.1588146215 3.8218076305 3.6362183941 6.0560271438 5.9702140275 5.7885595667 5.2659633393 4.1588146215 
3.6362183941 3.4545639333 3.368750817 0.22715816343 0.49462574053 0.3129712797 0.77059342779 0.68021497688 0.49462574053 
1.0172219679 1.0172219679 1.0172219679 1.0172219679 1.2156949949 1.271087727 1.3676273807 1.5707963268 2.1243706857 
1.3676273807 1.447813335 1.5707963268 1.7739652728 2.1243706857 2.6469669131 1.4827341049 1.5707963268 1.6937793186 
1.8705049266 2.1243706857 2.4613776767 2.8286213739 1.5707963268 1.6588585487 1.7739652728 1.9258976586 2.1243706857 
2.3709992258 2.6469669131 2.9144344902 1.7563855631 1.8785697967 1.8563003522 2.0024758186 1.9913306621 1.9779583789 
2.1243706857 2.1243706857 2.1243706857 2.1243706857 2.2408671392 2.2510113037 2.2630782103 2.2776669786 2.295651703 
2.3494282469 2.3680303173 2.3899057108 2.4159740166 2.4475202889 2.486385773 2.448570738 2.4736848652 2.5028148801 
2.5369440334 2.5773755784 2.6258554882 2.6847397011 2.5377803997 2.5675431237 2.6015718084 2.6407557529 2.6862098746 
2.7393287203 2.8018393335 2.8758309421 1.6743954455 1.6743954455 1.7840462375 1.6743954455 1.7840462375 1.8974821136 
1.6743954455 1.7840462375 1.8974821136 2.0119052671 1.6743954455 1.7840462375 1.8974821136 2.0119052671 2.1243706857 
1.6743954455 1.7840462375 1.8974821136 2.0119052671 2.1243706857 2.232221744 1.6743954455 1.7840462375 1.8974821136 
2.0119052671 2.1243706857 2.232221744 2.3334263672 1.6743954455 1.7840462375 1.8974821136 2.0119052671 2.1243706857 
2.232221744 2.3334263672 2.426721652 1.4671972081 1.3575464161 1.4671972081 1.24411054 1.3575464161 1.4671972081 
1.1296873865 1.24411054 1.3575464161 1.4671972081 1.0172219679 1.1296873865 1.24411054 1.3575464161 1.4671972081 
0.90937090954 1.0172219679 1.1296873865 1.24411054 1.3575464161 1.4671972081 0.80816628637 0.90937090954 1.0172219679 
1.1296873865 1.24411054 1.3575464161 1.4671972081 0.71487100155 0.80816628637 0.90937090954 1.0172219679 1.1296873865 
1.24411054 1.3575464161 1.4671972081 0.60381225391 0.57404952988 0.69302191562 0.54002084522 0.66790778838 0.79216440667 
0.50083690068 0.63877777351 0.77356233629 0.90072551443 0.45538277901 0.60464862014 0.75168694275 0.89058134991 1.0172219679 
0.40226393329 0.56421707518 0.72561863695 0.87851444325 1.0172219679 1.139116835 0.33975332011 0.51573716537 0.69407236469 
0.86392567495 1.0172219679 1.1502619915 1.2630228569 0.26576171152 0.45685295248 0.6552068806 0.84594095064 1.0172219679 
1.1636342747 1.2852923014 1.3852070904 0.22715816343 0.3129712797 0.49462574053 0.49462574053 0.68021497688 0.77059342779 
1.0172219679 1.0172219679 1.0172219679 1.0172219679 2.1243706857 1.5707963268 1.3676273807 1.271087727 1.2156949949 
2.6469669131 2.1243706857 1.7739652728 1.5707963268 1.447813335 1.3676273807 2.8286213739 2.4613776767 2.1243706857 
1.8705049266 1.6937793186 1.5707963268 1.4827341049 2.9144344902 2.6469669131 2.3709992258 2.1243706857 1.9258976586 
1.7739652728 1.6588585487 1.5707963268 1.7563855631 1.8563003522 1.8785697967 1.9779583789 1.9913306621 2.0024758186 
2.1243706857 2.1243706857 2.1243706857 2.1243706857 2.295651703 2.2776669786 2.2630782103 2.2510113037 2.2408671392 
2.486385773 2.4475202889 2.4159740166 2.3899057108 2.3680303173 2.3494282469 2.6847397011 2.6258554882 2.5773755784 
2.5369440334 2.5028148801 2.4736848652 2.448570738 2.8758309421 2.8018393335 2.7393287203 2.6862098746 2.6407557529 
2.6015718084 2.5675431237 2.5377803997 5.8604937156 5.901393709 5.9723133995 5.9473927383 6.0216547488 6.0927478736 
5.9992719463 6.0767621038 6.1501452836 6.2190157008 6.0578962336 6.1383094565 6.2134963469 0 0.064169606361 
6.1241815303 6.206940195 6.2831853072 0.069688960264 0.13304002361 0.19043743361 6.1990255847 0 0.07624511221 
0.14487585072 0.20642320337 0.26153055843 0.3108719077 0 0.084159722458 0.15900377685 0.22528907359 0.28391336087 
0.3357925689 0.38179159818 0.42269159155 5.8604937156 5.9723133995 5.901393709 6.0927478736 6.0216547488 5.9473927383 
6.2190157008 6.1501452836 6.0767621038 5.9992719463 0.064169606361 0 6.2134963469 6.1383094565 6.0578962336 
0.19043743361 0.13304002361 0.069688960264 6.2831853072 6.206940195 6.1241815303 0.3108719077 0.26153055843 0.20642320337 
0.14487585072 0.07624511221 6.2831853072 6.1990255847 0.42269159155 0.38179159818 0.3357925689 0.28391336087 0.22528907359 
0.15900377685 0.084159722458 0 5.6793730533 5.7091357773 5.5901633916 5.743164462 5.6152775188 5.4910209005 
5.7823484065 5.6444075337 5.5096229709 5.3824597928 5.8278025282 5.678536687 5.5314983644 5.3926039573 5.2659633393 
5.8809213739 5.718968232 5.5575666702 5.4046708639 5.2659633393 5.1440684722 5.9434319871 5.7674481418 5.5891129425 
5.4192596322 5.2659633393 5.1329233157 5.0201624502 6.0174235957 5.8263323547 5.6279784266 5.4372443565 5.2659633393 
5.1195510325 4.9978930058 4.8979782167 1.3852070904 1.2852923014 1.2630228569 1.1636342747 1.1502619915 1.139116835 
1.0172219679 1.0172219679 1.0172219679 1.0172219679 0.84594095064 0.86392567495 0.87851444325 0.89058134991 0.90072551443 
0.6552068806 0.69407236469 0.72561863695 0.75168694275 0.77356233629 0.79216440667 0.45685295248 0.51573716537 0.56421707518 
0.60464862014 0.63877777351 0.66790778838 0.69302191562 0.26576171152 0.33975332011 0.40226393329 0.45538277901 0.50083690068 
0.54002084522 0.57404952988 0.60381225391 
_paraPhiHalf 1 1002 double
0 3.1415926536 0 3.1415926536 1.5707963268 1.5707963268 1.5707963268 1.5707963268 2.5880182947 
0.5535743589 2.5880182947 0.5535743589 0 0 0 0 3.1415926536 3.1415926536 
3.1415926536 3.1415926536 3.1415926536 0.17788134 0.38438696014 0.60631181711 0.82323535693 1.0172219679 1.1799687454 
1.3118704726 1.4175000338 1.5022335207 0.17788134 0.38438696014 0.60631181711 0.82323535693 1.0172219679 1.1799687454 
1.3118704726 1.4175000338 1.5022335207 0.093902416448 0.17615329733 0.2478725152 0.31035131605 0.36486382811 0.41257334776 
0.45449736604 0.4915044461 0.52432611754 0.093902416448 0.17615329733 0.2478725152 0.31035131605 0.36486382811 0.41257334776 
0.45449736604 0.4915044461 0.52432611754 2.9637113136 2.7572056934 2.5352808365 2.3183572967 2.1243706857 1.9616239082 
1.829722181 1.7240926197 1.6393591329 2.9637113136 2.7572056934 2.5352808365 2.3183572967 2.1243706857 1.9616239082 
1.829722181 1.7240926197 1.6393591329 3.0476902371 2.9654393563 2.8937201384 2.8312413375 2.7767288255 2.7290193058 
2.6870952876 2.6500882075 2.617266536 3.0476902371 2.9654393563 2.8937201384 2.8312413375 2.7767288255 2.7290193058 
2.6870952876 2.6500882075 2.617266536 0 0 0 0 3.1415926536 3.1415926536 
3.1415926536 3.1415926536 3.1415926536 0.17788134 0.38438696014 0.60631181711 0.82323535693 1.0172219679 1.1799687454 
1.3118704726 1.4175000338 1.5022335207 0.17788134 0.38438696014 0.60631181711 0.82323535693 1.0172219679 1.1799687454 
1.3118704726 1.4175000338 1.5022335207 0.093902416448 0.17615329733 0.2478725152 0.31035131605 0.36486382811 0.41257334776 
0.45449736604 0.4915044461 0.52432611754 0.093902416448 0.17615329733 0.2478725152 0.31035131605 0.36486382811 0.41257334776 
0.45449736604 0.4915044461 0.52432611754 2.9637113136 2.7572056934 2.5352808365 2.3183572967 2.1243706857 1.9616239082 
1.829722181 1.7240926197 1.6393591329 2.9637113136 2.7572056934 2.5352808365 2.3183572967 2.1243706857 1.9616239082 
1.829722181 1.7240926197 1.6393591329 3.0476902371 2.9654393563 2.8937201384 2.8312413375 2.7767288255 2.7290193058 
2.6870952876 2.6500882075 2.617266536 3.0476902371 2.9654393563 2.8937201384 2.8312413375 2.7767288255 2.7290193058 
2.6870952876 2.6500882075 2.617266536 1.5707963268 1.5707963268 1.5707963268 1.5707963268 1.5707963268 1.5707963268 
1.5707963268 1.5707963268 1.5707963268 1.6743954455 1.7840462375 1.8974821136 2.0119052671 2.1243706857 2.232221744 
2.3334263672 2.426721652 2.5115728246 1.4671972081 1.3575464161 1.24411054 1.1296873865 1.0172219679 0.90937090954 
0.80816628637 0.71487100155 0.63001982895 1.6743954455 1.7840462375 1.8974821136 2.0119052671 2.1243706857 2.232221744 
2.3334263672 2.426721652 2.5115728246 1.4671972081 1.3575464161 1.24411054 1.1296873865 1.0172219679 0.90937090954 
0.80816628637 0.71487100155 0.63001982895 1.5707963268 1.5707963268 1.5707963268 1.5707963268 1.5707963268 1.5707963268 
1.5707963268 1.5707963268 1.5707963268 1.6743954455 1.7840462375 1.8974821136 2.0119052671 2.1243706857 2.232221744 
2.3334263672 2.426721652 2.5115728246 1.4671972081 1.3575464161 1.24411054 1.1296873865 1.0172219679 0.90937090954 
0.80816628637 0.71487100155 0.63001982895 1.6743954455 1.7840462375 1.8974821136 2.0119052671 2.1243706857 2.232221744 
2.3334263672 2.426721652 2.5115728246 1.4671972081 1.3575464161 1.24411054 1.1296873865 1.0172219679 0.90937090954 
0.80816628637 0.71487100155 0.63001982895 2.6824132222 2.7864913217 2.8992382033 3.0186096618 3.1415926536 3.0186096618 
2.8992382033 2.7864913217 2.6824132222 0.45917943135 0.35510133185 0.2423544503 0.12298299178 0 0.12298299178 
0.2423544503 0.35510133185 0.45917943135 0.22715816343 0.49462574053 0.3129712797 0.77059342779 0.68021497688 0.49462574053 
1.0172219679 1.0172219679 1.0172219679 1.0172219679 1.2156949949 1.271087727 1.3676273807 1.5707963268 2.1243706857 
1.3676273807 1.447813335 1.5707963268 1.7739652728 2.1243706857 2.6469669131 1.4827341049 1.5707963268 1.6937793186 
1.8705049266 2.1243706857 2.4613776767 2.8286213739 1.5707963268 1.6588585487 1.7739652728 1.9258976586 2.1243706857 
2.3709992258 2.6469669131 2.9144344902 0.26576171152 0.33975332011 0.45685295248 0.40226393329 0.51573716537 0.6552068806 
0.45538277901 0.56421707518 0.69407236469 0.84594095064 0.50083690068 0.60464862014 0.72561863695 0.86392567495 1.0172219679 
0.54002084522 0.63877777351 0.75168694275 0.87851444325 1.0172219679 1.1636342747 0.57404952988 0.66790778838 0.77356233629 
0.89058134991 1.0172219679 1.1502619915 1.2852923014 0.60381225391 0.69302191562 0.79216440667 0.90072551443 1.0172219679 
1.139116835 1.2630228569 1.3852070904 0.71487100155 0.80816628637 0.80816628637 0.90937090954 0.90937090954 0.90937090954 
1.0172219679 1.0172219679 1.0172219679 1.0172219679 1.1296873865 1.1296873865 1.1296873865 1.1296873865 1.1296873865 
1.24411054 1.24411054 1.24411054 1.24411054 1.24411054 1.24411054 1.3575464161 1.3575464161 1.3575464161 
1.3575464161 1.3575464161 1.3575464161 1.3575464161 1.4671972081 1.4671972081 1.4671972081 1.4671972081 1.4671972081 
1.4671972081 1.4671972081 1.4671972081 1.6743954455 1.6743954455 1.7840462375 1.6743954455 1.7840462375 1.8974821136 
1.6743954455 1.7840462375 1.8974821136 2.0119052671 1.6743954455 1.7840462375 1.8974821136 2.0119052671 2.1243706857 
1.6743954455 1.7840462375 1.8974821136 2.0119052671 2.1243706857 2.232221744 1.6743954455 1.7840462375 1.8974821136 
2.0119052671 2.1243706857 2.232221744 2.3334263672 1.6743954455 1.7840462375 1.8974821136 2.0119052671 2.1243706857 
2.232221744 2.3334263672 2.426721652 1.7563855631 1.8785697967 1.8563003522 2.0024758186 1.9913306621 1.9779583789 
2.1243706857 2.1243706857 2.1243706857 2.1243706857 2.2408671392 2.2510113037 2.2630782103 2.2776669786 2.295651703 
2.3494282469 2.3680303173 2.3899057108 2.4159740166 2.4475202889 2.486385773 2.448570738 2.4736848652 2.5028148801 
2.5369440334 2.5773755784 2.6258554882 2.6847397011 2.5377803997 2.5675431237 2.6015718084 2.6407557529 2.6862098746 
2.7393287203 2.8018393335 2.8758309421 2.718901062 2.8307207459 2.7598010554 2.95115522 2.8800620952 2.8058000847 
3.0774230472 3.00855263 2.9351694502 2.8576792927 3.0774230472 3.1415926536 3.0719036933 2.9967168029 2.91630358 
2.95115522 3.00855263 3.0719036933 3.1415926536 3.0653475414 2.9825888767 2.8307207459 2.8800620952 2.9351694502 
2.9967168029 3.0653475414 3.1415926536 3.0574329311 2.718901062 2.7598010554 2.8058000847 2.8576792927 2.91630358 
2.9825888767 3.0574329311 3.1415926536 2.718901062 2.7598010554 2.8307207459 2.8058000847 2.8800620952 2.95115522 
2.8576792927 2.9351694502 3.00855263 3.0774230472 2.91630358 2.9967168029 3.0719036933 3.1415926536 3.0774230472 
2.9825888767 3.0653475414 3.1415926536 3.0719036933 3.00855263 2.95115522 3.0574329311 3.1415926536 3.0653475414 