# vtk DataFile Version 5.1
vtk output
ASCII
DATASET POLYDATA
POINTS 1002 float
-8.7679 -0.316595 -3.49179 8.99612 -0.745134 -3.18401 -8.10055 0.350895 3.54463 
7.99884 -0.660785 2.38282 -1.08998 1.70075 -2.40574 -1.69884 1.97586 1.31086 
-0.693274 -6.31226 -2.20676 0.286529 -6.89222 2.15624 14.2315 9.36464 1.16006 
-13.1299 8.03982 0.910779 14.0061 -2.5297 0.0109834 -12.9953 -3.3484 0.103545 
-7.66077 -0.691922 -3.60228 -6.37482 -1.12218 -3.74481 -4.86208 -1.55852 -3.8546 
-2.98347 -1.93612 -3.76151 -0.700928 -2.19481 -3.48478 1.74047 -2.26491 -3.28183 
4.00581 -2.105 -3.24373 5.94331 -1.75427 -3.26084 7.58473 -1.28537 -3.25544 
-8.53782 0.129259 -3.60458 -8.16541 0.62512 -3.60534 -7.67476 1.15536 -3.52844 
-7.18824 1.689 -3.49652 -6.60802 2.17767 -3.46466 -5.6189 2.45759 -3.33254 
-4.29392 2.41899 -3.15802 -3.0525 2.19547 -2.97138 -2.03456 1.94288 -2.71803 
-8.27183 -0.992865 -3.42075 -7.67678 -1.748 -3.38959 -6.99466 -2.55352 -3.38117 
-6.23545 -3.34776 -3.33403 -5.38731 -4.07378 -3.22347 -4.45001 -4.6971 -3.04287 
-3.4673 -5.22756 -2.8251 -2.49874 -5.68567 -2.62321 -1.57342 -6.05089 -2.42461 
-9.69126 0.334607 -3.45881 -10.6328 1.11624 -3.34723 -11.5455 2.10438 -3.06939 
-12.3643 3.29075 -2.61127 -13.0452 4.53657 -2.09346 -13.5526 5.68934 -1.61013 
-13.8139 6.65067 -1.08507 -13.789 7.36141 -0.436319 -13.5308 7.81472 0.26962 
-9.51598 -0.40167 -3.3274 -10.2814 -0.563236 -3.15717 -11.0197 -0.802398 -2.99708 
-11.653 -1.10673 -2.76799 -12.1798 -1.43766 -2.38776 -12.6302 -1.78249 -1.95305 
-12.9532 -2.20744 -1.54597 -13.1099 -2.69241 -1.06274 -13.1184 -3.09388 -0.471603 
8.63786 -0.378333 -3.2116 8.17358 -0.033179 -3.21734 7.62762 0.289197 -3.12041 
6.95044 0.601963 -2.93348 6.00824 0.866563 -2.76608 4.75028 0.958406 -2.62823 
3.27804 0.851497 -2.49218 1.71907 0.800381 -2.41618 0.207863 1.08631 -2.41147 
8.40066 -1.48961 -3.22013 7.63506 -2.25363 -3.21996 6.74186 -2.99868 -3.17151 
5.7359 -3.71469 -3.09472 4.58586 -4.36734 -3.01821 3.37643 -4.9 -2.90172 
2.25487 -5.33387 -2.72334 1.22298 -5.71861 -2.54396 0.230081 -6.04896 -2.38484 
10.1294 0.151521 -3.00618 11.2596 1.25694 -2.68161 12.3473 2.52159 -2.2969 
13.3056 3.83166 -1.95078 14.0521 5.15763 -1.58488 14.6089 6.57027 -1.10591 
14.9475 7.94702 -0.564817 14.941 8.95775 -0.00590982 14.6323 9.41049 0.588426 
10.0017 -0.61099 -3.06634 10.9861 -0.453849 -2.83495 11.8854 -0.329997 -2.49564 
12.6754 -0.34609 -2.18396 13.3226 -0.538895 -1.91409 13.799 -0.842495 -1.55758 
14.1507 -1.21931 -1.16116 14.3653 -1.66661 -0.80601 14.3257 -2.1286 -0.422087 
-6.98325 -0.20699 3.54247 -5.70148 -0.745291 3.5474 -4.2272 -1.21597 3.51327 
-2.54432 -1.6363 3.3226 -0.664625 -1.95834 3.04865 1.30827 -2.04911 2.83671 
3.21148 -1.88265 2.64621 4.97044 -1.554 2.46723 6.57764 -1.13495 2.3828 
-7.73461 0.712838 3.45334 -7.34391 1.10849 3.34753 -6.86049 1.47046 3.21665 
-6.22941 1.77631 3.05191 -5.49783 2.0176 2.85691 -4.75657 2.1515 2.61249 
-3.99894 2.19925 2.30303 -3.19867 2.20098 1.96358 -2.41826 2.12905 1.63165 
-7.78768 -0.319339 3.65396 -7.35496 -1.05149 3.73003 -6.68429 -1.95598 3.63629 
-5.7271 -3.01282 3.40999 -4.57826 -4.02868 3.2567 -3.39479 -4.90085 3.18423 
-2.30765 -5.64721 3.02893 -1.3642 -6.23231 2.76294 -0.516589 -6.62749 2.45636 
-8.94117 1.14927 3.47204 -9.8092 2.01859 3.31242 -10.6416 2.89829 3.02956 
-11.3793 3.80903 2.7728 -12.0099 4.80008 2.65398 -12.5157 5.78444 2.53408 
-12.8742 6.62383 2.28677 -13.091 7.29237 1.9249 -13.1738 7.78358 1.45784 
-9.035 0.460024 3.54314 -10.0635 0.462924 3.43275 -11.0819 0.271503 3.20924 
-11.9644 -0.0960469 2.88814 -12.6587 -0.571612 2.48969 -13.1719 -1.16447 2.05069 
-13.4544 -1.85344 1.60467 -13.4603 -2.50286 1.13941 -13.2678 -3.00464 0.630988 
7.57616 -0.383342 2.31111 6.98879 -0.147264 2.2236 6.21089 0.0407444 2.09555 
5.27011 0.175938 1.95166 4.20117 0.28408 1.83219 2.99605 0.420823 1.71224 
1.66918 0.632647 1.60355 0.346122 0.956813 1.53353 -0.802615 1.41464 1.44648 
7.50954 -1.29058 2.43806 6.95602 -1.98695 2.48339 6.34616 -2.73025 2.53029 
5.69843 -3.493 2.58113 4.99777 -4.26145 2.61269 4.17507 -4.98706 2.62661 
3.23941 -5.6158 2.59933 2.27313 -6.15092 2.48421 1.29146 -6.58662 2.31704 
9.13101 0.0929266 2.35653 10.3052 1.0098 2.33313 11.4548 2.10105 2.37821 
12.4879 3.3877 2.48812 13.3459 4.77609 2.52665 13.9989 6.11021 2.49008 
14.352 7.36288 2.4378 14.399 8.45677 2.22344 14.3167 9.15934 1.75192 
9.03349 -0.55203 2.43589 10.0617 -0.475496 2.48011 11.0591 -0.47541 2.489 
11.9636 -0.636893 2.40629 12.7083 -0.992784 2.1665 13.2653 -1.43534 1.79724 
13.6476 -1.82584 1.40418 13.9005 -2.12739 1.00029 14.0363 -2.35907 0.527858 
-1.20058 1.9563 -2.16544 -1.30724 2.15558 -1.8908 -1.44486 2.38603 -1.58749 
-1.58013 2.63098 -1.2293 -1.62199 2.78537 -0.783621 -1.60848 2.82767 -0.278077 
-1.65042 2.74423 0.201098 -1.7198 2.52196 0.617841 -1.73466 2.24143 0.990079 
0.885268 1.27 -2.08213 3.38972 1.55546 -1.81082 5.83123 2.57694 -1.64429 
7.61726 3.93432 -1.46263 8.99065 5.24372 -1.16157 10.455 6.36094 -0.774963 
11.8652 7.29443 -0.329168 12.9135 8.14329 0.176299 13.6495 8.89686 0.691919 
-2.68877 2.78949 -2.51439 -4.07223 3.96575 -2.41004 -5.50991 4.78951 -2.09012 
-7.05349 5.47181 -1.67938 -8.39162 6.32496 -1.22555 -9.48021 7.09016 -0.742253 
-10.5531 7.60601 -0.294457 -11.5889 8.00645 0.122837 -12.4488 8.19999 0.53908 
-0.278087 1.4728 1.08697 1.833 1.30651 0.909279 4.59948 1.85182 0.851632 
7.25858 3.07665 0.944005 9.08604 4.51483 1.12629 10.3572 5.8199 1.30021 
11.5769 6.94593 1.40902 12.6617 7.93134 1.43534 13.5 8.77623 1.35783 
-2.86045 2.75037 1.37152 -4.04623 3.56856 1.45722 -5.33906 4.4292 1.58031 
-6.57804 5.46374 1.75378 -7.65328 6.5302 1.89664 -8.74379 7.32122 1.88637 
-9.9621 7.8409 1.74202 -11.1679 8.17851 1.53708 -12.2298 8.25294 1.26305 
-0.695914 -6.60056 -1.91812 -0.690223 -6.92717 -1.58468 -0.696019 -7.26518 -1.18367 
-0.694599 -7.51615 -0.652358 -0.606599 -7.63552 -0.0420253 -0.420873 -7.6303 0.523029 
-0.220694 -7.50781 1.02544 -0.0422001 -7.33173 1.47789 0.130538 -7.14046 1.85421 
0.795872 -6.37805 -2.10311 2.38101 -6.45841 -2.0428 3.98567 -6.54263 -2.0931 
5.81235 -6.44113 -2.17594 7.97167 -5.98033 -2.07973 9.97024 -5.30542 -1.74209 
11.3635 -4.61811 -1.29824 12.3654 -3.90462 -0.844819 13.2589 -3.17529 -0.402171 
-2.11568 -6.38947 -2.11955 -3.54641 -6.40334 -1.96977 -5.01785 -6.32924 -1.78303 
-6.55307 -6.15299 -1.59613 -8.02008 -5.90616 -1.41048 -9.34007 -5.63795 -1.1935 
-10.5303 -5.26423 -0.908385 -11.5258 -4.68992 -0.56643 -12.3147 -4.00929 -0.219601 
1.76566 -7.00526 1.96745 3.33491 -7.11743 1.78852 4.90526 -7.06281 1.60104 
6.50155 -6.77276 1.37422 8.1909 -6.31595 1.11579 9.80196 -5.718 0.881977 
11.0776 -4.97472 0.680271 12.1019 -4.13776 0.459719 13.0909 -3.29683 0.2217 
-1.30193 -6.99941 2.17774 -3.02916 -7.09808 2.15579 -4.77417 -7.06786 2.04591 
-6.51239 -6.83686 1.88581 -8.23909 -6.50769 1.7173 -9.72449 -6.11278 1.4732 
-10.7884 -5.51631 1.12277 -11.5994 -4.74157 0.758796 -12.3418 -3.98736 0.43049 
15.038 9.51091 1.22132 15.752 8.83923 1.16668 16.1848 7.25335 1.04795 
16.4355 5.36232 0.953197 16.5121 3.77007 0.858734 16.227 2.28763 0.694324 
15.782 0.699295 0.495319 15.3877 -0.684133 0.314777 14.8302 -1.69758 0.152534 
-14.0221 7.47719 0.844598 -14.8139 6.67017 0.731344 -15.2971 5.70802 0.591584 
-15.4802 4.49963 0.38998 -15.5268 2.98359 0.151144 -15.4234 1.33546 0.0118902 
-15.0853 -0.224759 0.00823927 -14.5168 -1.53285 0.0487059 -13.7792 -2.53732 0.08155 
-7.29834 -0.270055 -3.71204 -6.77737 0.194362 -3.72346 -5.85627 -0.711266 -3.82935 
-6.2061 0.647993 -3.70984 -5.17548 -0.313315 -3.83525 -4.11773 -1.16355 -3.81869 
-5.62037 1.07096 -3.70154 -4.42987 -0.0231593 -3.85988 -3.19161 -0.887964 -3.75848 
-1.94433 -1.5715 -3.56509 -4.71988 1.38342 -3.5627 -3.49512 0.23185 -3.79158 
-2.10114 -0.724011 -3.75671 -0.734506 -1.33859 -3.45952 0.568379 -1.80734 -3.28315 
-3.38875 1.39325 -3.29184 -2.17875 0.420313 -3.4647 -0.729406 -0.42664 -3.56408 
0.692202 -1.03469 -3.40695 1.95258 -1.4157 -3.22487 3.07764 -1.75303 -3.21879 
-2.02058 1.18362 -3.01093 -0.729703 0.440797 -3.03865 0.778418 -0.0365136 -3.12407 
2.27011 -0.450093 -3.15395 3.48815 -0.822265 -3.14444 4.45995 -1.12815 -3.21725 
5.2858 -1.43214 -3.28157 -0.862744 1.05408 -2.72472 0.551405 0.506802 -2.69588 
2.11204 0.348627 -2.7343 3.65588 0.250163 -2.82593 4.92779 -0.00893951 -2.93952 
5.83359 -0.332426 -3.11827 6.52529 -0.636425 -3.27392 7.11363 -0.94875 -3.2981 
-9.5016 0.891134 -3.51675 -10.4837 1.83791 -3.29905 -9.1486 1.51468 -3.41895 
-11.3863 3.00987 -2.9114 -10.1308 2.61375 -3.1344 -8.65134 2.1463 -3.30945 
-12.1165 4.29766 -2.42374 -10.9659 3.8854 -2.7518 -9.56828 3.29702 -3.05312 
-8.10937 2.72396 -3.29254 -12.6406 5.50121 -1.9305 -11.5552 5.14207 -2.28109 
-10.2761 4.52728 -2.66042 -8.87529 3.79664 -2.99712 -7.36172 3.18424 -3.21929 
-12.9301 6.50584 -1.41464 -11.8847 6.19009 -1.73493 -10.6974 5.66014 -2.0927 
-9.39157 4.86049 -2.4732 -7.90996 4.11261 -2.80636 -6.18132 3.42208 -3.05538 
-12.9597 7.29511 -0.806806 -11.9647 6.98906 -1.13385 -10.8372 6.5427 -1.46795 
-9.62517 5.81493 -1.84872 -8.2428 4.95338 -2.2387 -6.59308 4.26364 -2.61942 
-4.81757 3.40949 -2.91248 -12.7733 7.86527 -0.123901 -11.8411 7.59001 -0.50182 
-10.7586 7.16903 -0.868907 -9.62351 6.5634 -1.28171 -8.3818 5.69566 -1.71448 
-6.86893 4.92132 -2.13224 -5.2236 4.2349 -2.52507 -3.64605 3.18666 -2.75501 
-11.4458 8.26839 0.844559 -10.2331 8.08233 1.07556 -10.4356 7.96238 0.367601 
-8.9319 7.70264 1.25078 -9.13795 7.72798 0.537796 -9.33524 7.49249 -0.130809 
-7.77403 7.05899 1.34113 -7.9264 7.24685 0.622515 -8.13034 7.14645 -0.044173 
-8.30717 6.82457 -0.664535 -6.71558 6.05554 1.32053 -6.81468 6.41244 0.635529 
-6.93954 6.50363 -0.033578 -7.05568 6.34075 -0.61519 -7.08504 5.94908 -1.18995 
-5.48375 4.96594 1.25532 -5.53824 5.41094 0.688527 -5.54613 5.68352 0.0122436 
-5.56425 5.72753 -0.574754 -5.55707 5.50623 -1.12693 -5.52725 5.14754 -1.6583 
-4.13792 4.03766 1.17366 -4.14584 4.49374 0.761552 -4.07991 4.84561 0.170914 
[...]
POINT_DATA 1002
FIELD FieldData 4
_paraPhi 1 1002 double
6.2831853072 3.1415926536 6.2831853072 3.1415926536 4.7123889804 4.7123889804 1.5707963268 1.5707963268 3.6951670125 
5.7296109483 2.5880182947 0.5535743589 6.2831853072 6.2831853072 6.2831853072 6.2831853072 3.1415926536 3.1415926536 
3.1415926536 3.1415926536 3.1415926536 6.1053039672 5.898798347 5.6768734901 5.4599499503 5.2659633393 5.1032165617 
4.9713148346 4.8656852733 4.7809517865 0.17788134 0.38438696014 0.60631181711 0.82323535693 1.0172219679 1.1799687454 
1.3118704726 1.4175000338 1.5022335207 6.1892828907 6.1070320098 6.035312792 5.9728339911 5.9183214791 5.8706119594 
5.8286879411 5.7916808611 5.7588591896 0.093902416448 0.17615329733 0.2478725152 0.31035131605 0.36486382811 0.41257334776 
0.45449736604 0.4915044461 0.52432611754 3.3194739936 3.5259796137 3.7479044707 3.9648280105 4.1588146215 4.321561399 
4.4534631262 4.5590926874 4.6438261743 2.9637113136 2.7572056934 2.5352808365 2.3183572967 2.1243706857 1.9616239082 
1.829722181 1.7240926197 1.6393591329 3.23549507 3.3177459509 3.3894651688 3.4519439696 3.5064564817 3.5541660013 
3.5960900196 3.6330970997 3.6659187711 3.0476902371 2.9654393563 2.8937201384 2.8312413375 2.7767288255 2.7290193058 
2.6870952876 2.6500882075 2.617266536 6.2831853072 6.2831853072 6.2831853072 6.2831853072 3.1415926536 3.1415926536 
3.1415926536 3.1415926536 3.1415926536 6.1053039672 5.898798347 5.6768734901 5.4599499503 5.2659633393 5.1032165617 
4.9713148346 4.8656852733 4.7809517865 0.17788134 0.38438696014 0.60631181711 0.82323535693 1.0172219679 1.1799687454 
1.3118704726 1.4175000338 1.5022335207 6.1892828907 6.1070320098 6.035312792 5.9728339911 5.9183214791 5.8706119594 
5.8286879411 5.7916808611 5.7588591896 0.093902416448 0.17615329733 0.2478725152 0.31035131605 0.36486382811 0.41257334776 
0.45449736604 0.4915044461 0.52432611754 3.3194739936 3.5259796137 3.7479044707 3.9648280105 4.1588146215 4.321561399 
4.4534631262 4.5590926874 4.6438261743 2.9637113136 2.7572056934 2.5352808365 2.3183572967 2.1243706857 1.9616239082 
1.829722181 1.7240926197 1.6393591329 3.23549507 3.3177459509 3.3894651688 3.4519439696 3.5064564817 3.5541660013 
3.5960900196 3.6330970997 3.6659187711 3.0476902371 2.9654393563 2.8937201384 2.8312413375 2.7767288255 2.7290193058 
2.6870952876 2.6500882075 2.617266536 4.7123889804 4.7123889804 4.7123889804 4.7123889804 4.7123889804 4.7123889804 
4.7123889804 4.7123889804 4.7123889804 4.6087898617 4.4991390697 4.3857031936 4.2712800401 4.1588146215 4.0509635631 
3.94975894 3.8564636551 3.7716124825 4.8159880991 4.9256388911 5.0390747672 5.1534979207 5.2659633393 5.3738143976 
5.4750190208 5.5683143056 5.6531654782 4.6087898617 4.4991390697 4.3857031936 4.2712800401 4.1588146215 4.0509635631 
3.94975894 3.8564636551 3.7716124825 4.8159880991 4.9256388911 5.0390747672 5.1534979207 5.2659633393 5.3738143976 
5.4750190208 5.5683143056 5.6531654782 1.5707963268 1.5707963268 1.5707963268 1.5707963268 1.5707963268 1.5707963268 
1.5707963268 1.5707963268 1.5707963268 1.6743954455 1.7840462375 1.8974821136 2.0119052671 2.1243706857 2.232221744 
2.3334263672 2.426721652 2.5115728246 1.4671972081 1.3575464161 1.24411054 1.1296873865 1.0172219679 0.90937090954 
0.80816628637 0.71487100155 0.63001982895 1.6743954455 1.7840462375 1.8974821136 2.0119052671 2.1243706857 2.232221744 
2.3334263672 2.426721652 2.5115728246 1.4671972081 1.3575464161 1.24411054 1.1296873865 1.0172219679 0.90937090954 
0.80816628637 0.71487100155 0.63001982895 3.6007720849 3.4966939854 3.3839471039 3.2645756454 3.1415926536 3.0186096618 
2.8992382033 2.7864913217 2.6824132222 5.8240058758 5.9280839753 6.0408308569 6.1602023154 6.2831853072 0.12298299178 
0.2423544503 0.35510133185 0.45917943135 6.0560271438 5.7885595667 5.9702140275 5.5125918794 5.6029703303 5.7885595667 
5.2659633393 5.2659633393 5.2659633393 5.2659633393 5.0674903122 5.0120975802 4.9155579264 4.7123889804 4.1588146215 
4.9155579264 4.8353719722 4.7123889804 4.5092200343 4.1588146215 3.6362183941 4.8004512023 4.7123889804 4.5894059886 
4.4126803806 4.1588146215 3.8218076305 3.4545639333 4.7123889804 4.6243267584 4.5092200343 4.3572876485 4.1588146215 
3.9121860814 3.6362183941 3.368750817 6.0174235957 5.9434319871 5.8263323547 5.8809213739 5.7674481418 5.6279784266 
5.8278025282 5.718968232 5.5891129425 5.4372443565 5.7823484065 5.678536687 5.5575666702 5.4192596322 5.2659633393 
5.743164462 5.6444075337 5.5314983644 5.4046708639 5.2659633393 5.1195510325 5.7091357773 5.6152775188 5.5096229709 
5.3926039573 5.2659633393 5.1329233157 4.9978930058 5.6793730533 5.5901633916 5.4910209005 5.3824597928 5.2659633393 
5.1440684722 5.0201624502 4.8979782167 5.5683143056 5.4750190208 5.4750190208 5.3738143976 5.3738143976 5.3738143976 
5.2659633393 5.2659633393 5.2659633393 5.2659633393 5.1534979207 5.1534979207 5.1534979207 5.1534979207 5.1534979207 
5.0390747672 5.0390747672 5.0390747672 5.0390747672 5.0390747672 5.0390747672 4.9256388911 4.9256388911 4.9256388911 
4.9256388911 4.9256388911 4.9256388911 4.9256388911 4.8159880991 4.8159880991 4.8159880991 4.8159880991 4.8159880991 
4.8159880991 4.8159880991 4.8159880991 4.6087898617 4.6087898617 4.4991390697 4.6087898617 4.4991390697 4.3857031936 
4.6087898617 4.4991390697 4.3857031936 4.2712800401 4.6087898617 4.4991390697 4.3857031936 4.2712800401 4.1588146215 
4.6087898617 4.4991390697 4.3857031936 4.2712800401 4.1588146215 4.0509635631 4.6087898617 4.4991390697 4.3857031936 
4.2712800401 4.1588146215 4.0509635631 3.94975894 4.6087898617 4.4991390697 4.3857031936 4.2712800401 4.1588146215 
4.0509635631 3.94975894 3.8564636551 4.526799744 4.4046155105 4.426884955 4.2807094886 4.2918546451 4.3052269283 
4.1588146215 4.1588146215 4.1588146215 4.1588146215 4.042318168 4.0321740035 4.0201070968 4.0055183285 3.9875336042 
3.9337570603 3.9151549899 3.8932795963 3.8672112905 3.8356650183 3.7967995342 3.8346145692 3.809500442 3.7803704271 
3.7462412737 3.7058097288 3.657329819 3.5984456061 3.7454049075 3.7156421835 3.6816134988 3.6424295543 3.5969754326 
3.5438565869 3.4813459737 3.4073543651 3.5642842451 3.4524645613 3.5233842518 3.3320300872 3.403123212 3.4773852225 
3.20576226 3.2746326772 3.348015857 3.4255060145 3.0774230472 3.1415926536 3.2112816139 3.2864685043 3.3668817272 
2.95115522 3.00855263 3.0719036933 3.1415926536 3.2178377658 3.3005964304 2.8307207459 2.8800620952 2.9351694502 
2.9967168029 3.0653475414 3.1415926536 3.225752376 2.718901062 2.7598010554 2.8058000847 2.8576792927 2.91630358 
2.9825888767 3.0574329311 3.1415926536 3.5642842451 3.5233842518 3.4524645613 3.4773852225 3.403123212 3.3320300872 
3.4255060145 3.348015857 3.2746326772 3.20576226 3.3668817272 3.2864685043 3.2112816139 3.1415926536 3.0774230472 
3.3005964304 3.2178377658 3.1415926536 3.0719036933 3.00855263 2.95115522 3.225752376 3.1415926536 3.0653475414 
2.9967168029 2.9351694502 2.8800620952 2.8307207459 3.1415926536 3.0574329311 2.9825888767 2.91630358 2.8576792927 
2.8058000847 2.7598010554 2.718901062 4.526799744 4.426884955 4.4046155105 4.3052269283 4.2918546451 4.2807094886 
4.1588146215 4.1588146215 4.1588146215 4.1588146215 3.9875336042 4.0055183285 4.0201070968 4.0321740035 4.042318168 
3.7967995342 3.8356650183 3.8672112905 3.8932795963 3.9151549899 3.9337570603 3.5984456061 3.657329819 3.7058097288 
3.7462412737 3.7803704271 3.809500442 3.8346145692 3.4073543651 3.4813459737 3.5438565869 3.5969754326 3.6424295543 
3.6816134988 3.7156421835 3.7454049075 4.7123889804 4.8004512023 4.6243267584 4.9155579264 4.7123889804 4.5092200343 
5.0674903122 4.8353719722 4.5894059886 4.3572876485 5.2659633393 5.0120975802 4.7123889804 4.4126803806 4.1588146215 
5.5125918794 5.2659633393 4.9155579264 4.5092200343 4.1588146215 3.9121860814 5.7885595667 5.6029703303 5.2659633393 
4.7123889804 4.1588146215 3.8218076305 3.6362183941 6.0560271438 5.9702140275 5.7885595667 5.2659633393 4.1588146215 
3.6362183941 3.4545639333 3.368750817 0.22715816343 0.49462574053 0.3129712797 0.77059342779 0.68021497688 0.49462574053 
1.0172219679 1.0172219679 1.0172219679 1.0172219679 1.2156949949 1.271087727 1.3676273807 1.5707963268 2.1243706857 
1.3676273807 1.447813335 1.5707963268 1.7739652728 2.1243706857 2.6469669131 1.4827341049 1.5707963268 1.6937793186 
1.8705049266 2.1243706857 2.4613776767 2.8286213739 1.5707963268 1.6588585487 1.7739652728 1.9258976586 2.1243706857 
2.3709992258 2.6469669131 2.9144344902 1.7563855631 1.8785697967 1.8563003522 2.0024758186 1.9913306621 1.9779583789 
2.1243706857 2.1243706857 2.1243706857 2.1243706857 2.2408671392 2.2510113037 2.2630782103 2.2776669786 2.295651703 
2.3494282469 2.3680303173 2.3899057108 2.4159740166 2.4475202889 2.486385773 2.448570738 2.4736848652 2.5028148801 
2.5369440334 2.5773755784 2.6258554882 2.6847397011 2.5377803997 2.5675431237 2.6015718084 2.6407557529 2.6862098746 
2.7393287203 2.8018393335 2.8758309421 1.6743954455 1.6743954455 1.7840462375 1.6743954455 1.7840462375 1.8974821136 
1.6743954455 1.7840462375 1.8974821136 2.0119052671 1.6743954455 1.7840462375 1.8974821136 2.0119052671 2.1243706857 
1.6743954455 1.7840462375 1.8974821136 2.0119052671 2.1243706857 2.232221744 1.6743954455 1.7840462375 1.8974821136 
2.0119052671 2.1243706857 2.232221744 2.3334263672 1.6743954455 1.7840462375 1.8974821136 2.0119052671 2.1243706857 
2.232221744 2.3334263672 2.426721652 1.4671972081 1.3575464161 1.4671972081 1.24411054 1.3575464161 1.4671972081 
1.1296873865 1.24411054 1.3575464161 1.4671972081 1.0172219679 1.1296873865 1.24411054 1.3575464161 1.4671972081 
0.90937090954 1.0172219679 1.1296873865 1.24411054 1.3575464161 1.4671972081 0.80816628637 0.90937090954 1.0172219679 
1.1296873865 1.24411054 1.3575464161 1.4671972081 0.71487100155 0.80816628637 0.90937090954 1.0172219679 1.1296873865 
1.24411054 1.3575464161 1.4671972081 0.60381225391 0.57404952988 0.69302191562 0.54002084522 0.66790778838 0.79216440667 
0.50083690068 0.63877777351 0.77356233629 0.90072551443 0.45538277901 0.60464862014 0.75168694275 0.89058134991 1.0172219679 
0.40226393329 0.56421707518 0.72561863695 0.87851444325 1.0172219679 1.139116835 0.33975332011 0.51573716537 0.69407236469 
0.86392567495 1.0172219679 1.1502619915 1.2630228569 0.26576171152 0.45685295248 0.6552068806 0.84594095064 1.0172219679 
1.1636342747 1.2852923014 1.3852070904 0.22715816343 0.3129712797 0.49462574053 0.49462574053 0.68021497688 0.77059342779 
1.0172219679 1.0172219679 1.0172219679 1.0172219679 2.1243706857 1.5707963268 1.3676273807 1.271087727 1.2156949949 
2.6469669131 2.1243706857 1.7739652728 1.5707963268 1.447813335 1.3676273807 2.8286213739 2.4613776767 2.1243706857 
1.8705049266 1.6937793186 1.5707963268 1.4827341049 2.9144344902 2.6469669131 2.3709992258 2.1243706857 1.9258976586 
1.7739652728 1.6588585487 1.5707963268 1.7563855631 1.8563003522 1.8785697967 1.9779583789 1.9913306621 2.0024758186 
2.1243706857 2.1243706857 2.1243706857 2.1243706857 2.295651703 2.2776669786 2.2630782103 2.2510113037 2.2408671392 
2.486385773 2.4475202889 2.4159740166 2.3899057108 2.3680303173 2.3494282469 2.6847397011 2.6258554882 2.5773755784 
2.5369440334 2.5028148801 2.4736848652 2.448570738 2.8758309421 2.8018393335 2.7393287203 2.6862098746 2.6407557529 
2.6015718084 2.5675431237 2.5377803997 5.8604937156 5.901393709 5.9723133995 5.9473927383 6.0216547488 6.0927478736 
5.9992719463 6.0767621038 6.1501452836 6.2190157008 6.0578962336 6.1383094565 6.2134963469 0 0.064169606361 
6.1241815303 6.206940195 6.2831853072 0.069688960264 0.13304002361 0.19043743361 6.1990255847 0 0.07624511221 
0.14487585072 0.20642320337 0.26153055843 0.3108719077 0 0.084159722458 0.15900377685 0.22528907359 0.28391336087 
0.3357925689 0.38179159818 0.42269159155 5.8604937156 5.9723133995 5.901393709 6.0927478736 6.0216547488 5.9473927383 
6.2190157008 6.1501452836 6.0767621038 5.9992719463 0.064169606361 0 6.2134963469 6.1383094565 6.0578962336 
0.19043743361 0.13304002361 0.069688960264 6.2831853072 6.206940195 6.1241815303 0.3108719077 0.26153055843 0.20642320337 
0.14487585072 0.07624511221 6.2831853072 6.1990255847 0.42269159155 0.38179159818 0.3357925689 0.28391336087 0.22528907359 
0.15900377685 0.084159722458 0 5.6793730533 5.7091357773 5.5901633916 5.743164462 5.6152775188 5.4910209005 
5.7823484065 5.6444075337 5.5096229709 5.3824597928 5.8278025282 5.678536687 5.5314983644 5.3926039573 5.2659633393 
5.8809213739 5.718968232 5.5575666702 5.4046708639 5.2659633393 5.1440684722 5.9434319871 5.7674481418 5.5891129425 
5.4192596322 5.2659633393 5.1329233157 5.0201624502 6.0174235957 5.8263323547 5.6279784266 5.4372443565 5.2659633393 
5.1195510325 4.9978930058 4.8979782167 1.3852070904 1.2852923014 1.2630228569 1.1636342747 1.1502619915 1.139116835 
1.0172219679 1.0172219679 1.0172219679 1.0172219679 0.84594095064 0.86392567495 0.87851444325 0.89058134991 0.90072551443 
0.6552068806 0.69407236469 0.72561863695 0.75168694275 0.77356233629 0.79216440667 0.45685295248 0.51573716537 0.56421707518 
0.60464862014 0.63877777351 0.66790778838 0.69302191562 0.26576171152 0.33975332011 0.40226393329 0.45538277901 0.50083690068 
0.54002084522 0.57404952988 0.60381225391 
_paraPhiHalf 1 1002 double
0 3.1415926536 0 3.1415926536 1.5707963268 1.5707963268 1.5707963268 1.5707963268 2.5880182947 
0.5535743589 2.5880182947 0.5535743589 0 0 0 0 3.1415926536 3.1415926536 
3.1415926536 3.1415926536 3.1415926536 0.17788134 0.38438696014 0.60631181711 0.82323535693 1.0172219679 1.1799687454 
1.3118704726 1.4175000338 1.5022335207 0.17788134 0.38438696014 0.60631181711 0.82323535693 1.0172219679 1.1799687454 
1.3118704726 1.4175000338 1.5022335207 0.093902416448 0.17615329733 0.2478725152 0.31035131605 0.36486382811 0.41257334776 
0.45449736604 0.4915044461 0.52432611754 0.093902416448 0.17615329733 0.2478725152 0.31035131605 0.36486382811 0.41257334776 
0.45449736604 0.4915044461 0.52432611754 2.9637113136 2.7572056934 2.5352808365 2.3183572967 2.1243706857 1.9616239082 
1.829722181 1.7240926197 1.6393591329 2.9637113136 2.7572056934 2.5352808365 2.3183572967 2.1243706857 1.9616239082 
1.829722181 1.7240926197 1.6393591329 3.0476902371 2.9654393563 2.8937201384 2.8312413375 2.7767288255 2.7290193058 
2.6870952876 2.6500882075 2.617266536 3.0476902371 2.9654393563 2.8937201384 2.8312413375 2.7767288255 2.7290193058 
2.6870952876 2.6500882075 2.617266536 0 0 0 0 3.1415926536 3.1415926536 
3.1415926536 3.1415926536 3.1415926536 0.17788134 0.38438696014 0.60631181711 0.82323535693 1.0172219679 1.1799687454 
1.3118704726 1.4175000338 1.5022335207 0.17788134 0.38438696014 0.60631181711 0.82323535693 1.0172219679 1.1799687454 
1.3118704726 1.4175000338 1.5022335207 0.093902416448 0.17615329733 0.2478725152 0.31035131605 0.36486382811 0.41257334776 
0.45449736604 0.4915044461 0.52432611754 0.093902416448 0.17615329733 0.2478725152 0.31035131605 0.36486382811 0.41257334776 
0.45449736604 0.4915044461 0.52432611754 2.9637113136 2.7572056934 2.5352808365 2.3183572967 2.1243706857 1.9616239082 
1.829722181 1.7240926197 1.6393591329 2.9637113136 2.7572056934 2.5352808365 2.3183572967 2.1243706857 1.9616239082 
1.829722181 1.7240926197 1.6393591329 3.0476902371 2.9654393563 2.8937201384 2.8312413375 2.7767288255 2.7290193058 
2.6870952876 2.6500882075 2.617266536 3.0476902371 2.9654393563 2.8937201384 2.8312413375 2.7767288255 2.7290193058 
2.6870952876 2.6500882075 2.617266536 1.5707963268 1.5707963268 1.5707963268 1.5707963268 1.5707963268 1.5707963268 
1.5707963268 1.5707963268 1.5707963268 1.6743954455 1.7840462375 1.8974821136 2.0119052671 2.1243706857 2.232221744 
2.3334263672 2.426721652 2.5115728246 1.4671972081 1.3575464161 1.24411054 1.1296873865 1.0172219679 0.90937090954 
0.80816628637 0.71487100155 0.63001982895 1.6743954455 1.7840462375 1.8974821136 2.0119052671 2.1243706857 2.232221744 
2.3334263672 2.426721652 2.5115728246 1.4671972081 1.3575464161 1.24411054 1.1296873865 1.0172219679 0.90937090954 
0.80816628637 0.71487100155 0.63001982895 1.5707963268 1.5707963268 1.5707963268 1.5707963268 1.5707963268 1.5707963268 
1.5707963268 1.5707963268 1.5707963268 1.6743954455 1.7840462375 1.8974821136 2.0119052671 2.1243706857 2.232221744 
2.3334263672 2.426721652 2.5115728246 1.4671972081 1.3575464161 1.24411054 1.1296873865 1.0172219679 0.90937090954 
0.80816628637 0.71487100155 0.63001982895 1.6743954455 1.7840462375 1.8974821136 2.0119052671 2.1243706857 2.232221744 
2.3334263672 2.426721652 2.5115728246 1.4671972081 1.3575464161 1.24411054 1.1296873865 1.0172219679 0.90937090954 
0.80816628637 0.71487100155 0.63001982895 2.6824132222 2.7864913217 2.8992382033 3.0186096618 3.1415926536 3.0186096618 
2.8992382033 2.7864913217 2.6824132222 0.45917943135 0.35510133185 0.2423544503 0.12298299178 0 0.12298299178 
0.2423544503 0.35510133185 0.45917943135 0.22715816343 0.49462574053 0.3129712797 0.77059342779 0.68021497688 0.49462574053 
1.0172219679 1.0172219679 1.0172219679 1.0172219679 1.2156949949 1.271087727 1.3676273807 1.5707963268 2.1243706857 
1.3676273807 1.447813335 1.5707963268 1.7739652728 2.1243706857 2.6469669131 1.4827341049 1.5707963268 1.6937793186 
1.8705049266 2.1243706857 2.4613776767 2.8286213739 1.5707963268 1.6588585487 1.7739652728 1.9258976586 2.1243706857 
2.3709992258 2.6469669131 2.9144344902 0.26576171152 0.33975332011 0.45685295248 0.40226393329 0.51573716537 0.6552068806 
0.45538277901 0.56421707518 0.69407236469 0.84594095064 0.50083690068 0.60464862014 0.72561863695 0.86392567495 1.0172219679 
0.54002084522 0.63877777351 0.75168694275 0.87851444325 1.0172219679 1.1636342747 0.57404952988 0.66790778838 0.77356233629 
0.89058134991 1.0172219679 1.1502619915 1.2852923014 0.60381225391 0.69302191562 0.79216440667 0.90072551443 1.0172219679 
1.139116835 1.2630228569 1.3852070904 0.71487100155 0.80816628637 0.80816628637 0.90937090954 0.90937090954 0.90937090954 
1.0172219679 1.0172219679 1.0172219679 1.0172219679 1.1296873865 1.1296873865 1.1296873865 1.1296873865 1.1296873865 
1.24411054 1.24411054 1.24411054 1.24411054 1.24411054 1.24411054 1.3575464161 1.3575464161 1.3575464161 
1.3575464161 1.3575464161 1.3575464161 1.3575464161 1.4671972081 1.4671972081 1.4671972081 1.4671972081 1.4671972081 
1.4671972081 1.4671972081 1.4671972081 1.6743954455 1.6743954455 1.7840462375 1.6743954455 1.7840462375 1.8974821136 
1.6743954455 1.7840462375 1.8974821136 2.0119052671 1.6743954455 1.7840462375 1.8974821136 2.0119052671 2.1243706857 
1.6743954455 1.7840462375 1.8974821136 2.0119052671 2.1243706857 2.232221744 1.6743954455 1.7840462375 1.8974821136 
2.0119052671 2.1243706857 2.232221744 2.3334263672 1.6743954455 1.7840462375 1.8974821136 2.0119052671 2.1243706857 
2.232221744 2.3334263672 2.426721652 1.7563855631 1.8785697967 1.8563003522 2.0024758186 1.9913306621 1.9779583789 
2.1243706857 2.1243706857 2.1243706857 2.1243706857 2.2408671392 2.2510113037 2.2630782103 2.2776669786 2.295651703 
2.3494282469 2.3680303173 2.3899057108 2.4159740166 2.4475202889 2.486385773 2.448570738 2.4736848652 2.5028148801 
2.5369440334 2.5773755784 2.6258554882 2.6847397011 2.5377803997 2.5675431237 2.6015718084 2.6407557529 2.6862098746 
2.7393287203 2.8018393335 2.8758309421 2.718901062 2.8307207459 2.7598010554 2.95115522 2.8800620952 2.8058000847 
3.0774230472 3.00855263 2.9351694502 2.8576792927 3.0774230472 3.1415926536 3.0719036933 2.9967168029 2.91630358 
2.95115522 3.00855263 3.0719036933 3.1415926536 3.0653475414 2.9825888767 2.8307207459 2.8800620952 2.9351694502 
2.9967168029 3.0653475414 3.1415926536 3.0574329311 2.718901062 2.7598010554 2.8058000847 2.8576792927 2.91630358 
2.9825888767 3.0574329311 3.1415926536 2.718901062 2.7598010554 2.8307207459 2.8058000847 2.8800620952 2.95115522 
2.8576792927 2.9351694502 3.00855263 3.0774230472 2.91630358 2.9967168029 3.0719036933 3.1415926536 3.0774230472 
2.9825888767 3.0653475414 3.1415926536 3.0719036933 3.00855263 2.95115522 3.0574329311 3.1415926536 3.0653475414 