# vtk DataFile Version 5.1
vtk output
ASCII
DATASET POLYDATA
POINTS 100 float
-4.55626 3.77478 1.31059 -4.56586 3.76662 1.30815 -4.59335 3.74075 1.30448 
-4.63726 3.69815 1.30038 -4.69533 3.64023 1.297 -4.76485 3.56851 1.2956 
-4.84295 3.4843 1.2974 -4.92701 3.38843 1.30327 -5.01487 3.28107 1.31367 
-5.10511 3.16171 1.32852 -5.19704 3.02931 1.34731 -5.29074 2.8826 1.36913 
-5.38691 2.72037 1.39293 -5.48663 2.54189 1.41765 -5.59124 2.34711 1.44244 
-5.70208 2.13691 1.46672 -5.82035 1.91298 1.49029 -5.94702 1.67772 1.51322 
-6.08282 1.43391 1.53581 -6.2282 1.18432 1.5584 -6.38342 0.93138 1.58125 
-6.54854 0.676832 1.60439 -6.72349 0.421585 1.62762 -6.90805 0.165675 1.65047 
-7.10186 -0.091627 1.67226 -7.30439 -0.351588 1.69229 -7.51491 -0.615738 1.7099 
-7.73252 -0.885598 1.72463 -7.95616 -1.16246 1.73632 -8.1847 -1.44727 1.74511 
-8.41699 -1.7406 1.75141 -8.65202 -2.04273 1.75582 -8.88899 -2.35377 1.75901 
-9.12736 -2.67378 1.76158 -9.36689 -3.00291 1.76401 -9.6076 -3.34143 1.76658 
-9.84971 -3.68968 1.7694 -10.0935 -4.04801 1.77246 -10.3394 -4.41662 1.77572 
-10.5874 -4.79551 1.77921 -10.8377 -5.18433 1.78308 -11.0902 -5.5825 1.7876 
-11.3445 -5.98922 1.79311 -11.6004 -6.40374 1.79988 -11.8574 -6.82553 1.80796 
-12.1152 -7.2545 1.81698 -12.3732 -7.69112 1.82602 -12.631 -8.13646 1.83351 
-12.8876 -8.59205 1.83726 -13.1418 -9.05965 1.8346 -13.3918 -9.54093 1.8226 
-13.6351 -10.0371 1.79837 -13.8685 -10.5484 1.7594 -14.0883 -11.0743 1.7039 
-14.2905 -11.613 1.63098 -14.4711 -12.1617 1.54083 -14.6266 -12.717 1.43471 
-14.7543 -13.2752 1.31477 -14.8529 -13.8324 1.18382 -14.9222 -14.3857 1.04498 
-14.9638 -14.9326 0.901409 -14.9803 -15.4717 0.755904 -14.9756 -16.0027 0.61075 
-14.9537 -16.5256 0.467574 -14.9191 -17.0411 0.327357 -14.8754 -17.5498 0.190538 
-14.8255 -18.052 0.0571954 -14.771 -18.5476 -0.0727438 -14.7126 -19.036 -0.199307 
-14.6496 -19.516 -0.322333 -14.5809 -19.9862 -0.441401 -14.5051 -20.4452 -0.555849 
-14.4209 -20.8919 -0.664863 -14.3274 -21.3258 -0.767619 -14.225 -21.7467 -0.863434 
-14.1145 -22.1551 -0.951907 -13.9982 -22.5516 -1.033 -13.8786 -22.9367 -1.10706 
-13.7589 -23.3107 -1.17477 -13.6423 -23.6731 -1.23701 -13.5318 -24.0229 -1.29472 
-13.4301 -24.3582 -1.34872 -13.3391 -24.6767 -1.39958 -13.2602 -24.9762 -1.44749 
-13.1944 -25.2546 -1.49226 -13.1423 -25.5104 -1.53333 -13.104 -25.7435 -1.5699 
-13.0797 -25.9544 -1.60104 -13.0691 -26.145 -1.62592 -13.0718 -26.3174 -1.64393 
-13.0869 -26.4745 -1.65482 -13.113 -26.6182 -1.65882 -13.1481 -26.7503 -1.65664 
-13.1894 -26.871 -1.64945 -13.2335 -26.9796 -1.63876 -13.2767 -27.0741 -1.62631 
-13.3153 -27.152 -1.61385 -13.3456 -27.2104 -1.60302 -13.3648 -27.2466 -1.59514 
-13.371 -27.2589 -1.59109 
LINES 2 100
OFFSETS vtktypeint64
0 100 
CONNECTIVITY vtktypeint64
0 1 2 3 4 5 6 7 8 
9 10 11 12 13 14 15 16 17 
18 19 20 21 22 23 24 25 26 
27 28 29 30 31 32 33 34 35 
36 37 38 39 40 41 42 43 44 
45 46 47 48 49 50 51 52 53 
54 55 56 57 58 59 60 61 62 
63 64 65 66 67 68 69 70 71 
72 73 74 75 76 77 78 79 80 
81 82 83 84 85 86 87 88 89 
90 91 92 93 94 95 96 97 98 
99 
POINT_DATA 100
FIELD FieldData 3
_theta 1 100 double
0 0.031733259127 0.063466518254 0.095199777382 0.12693303651 0.15866629564 0.19039955476 0.22213281389 0.25386607302 
0.28559933214 0.31733259127 0.3490658504 0.38079910953 0.41253236865 0.44426562778 0.47599888691 0.50773214603 0.53946540516 
0.57119866429 0.60293192342 0.63466518254 0.66639844167 0.6981317008 0.72986495992 0.76159821905 0.79333147818 0.82506473731 
0.85679799643 0.88853125556 0.92026451469 0.95199777382 0.98373103294 1.0154642921 1.0471975512 1.0789308103 1.1106640695 
1.1423973286 1.1741305877 1.2058638468 1.237597106 1.2693303651 1.3010636242 1.3327968833 1.3645301425 1.3962634016 
1.4279966607 1.4597299198 1.491463179 1.5231964381 1.5549296972 1.5866629564 1.6183962155 1.6501294746 1.6818627337 
1.7135959929 1.745329252 1.7770625111 1.8087957702 1.8405290294 1.8722622885 1.9039955476 1.9357288068 1.9674620659 
1.999195325 2.0309285841 2.0626618433 2.0943951024 2.1261283615 2.1578616206 2.1895948798 2.2213281389 2.253061398 
2.2847946572 2.3165279163 2.3482611754 2.3799944345 2.4117276937 2.4434609528 2.4751942119 2.506927471 2.5386607302 
2.5703939893 2.6021272484 2.6338605076 2.6655937667 2.6973270258 2.7290602849 2.7607935441 2.7925268032 2.8242600623 
2.8559933214 2.8877265806 2.9194598397 2.9511930988 2.982926358 3.0146596171 3.0463928762 3.0781261353 3.1098593945 
3.1415926536 
_radius 1 100 double
5.6871167663e-15 0.29634911411 0.5913544775 0.8835176577 1.1712696072 1.4529588587 1.7268675526 1.9912681007 2.2445251673 
2.48523305 2.7123629979 2.9253854749 3.1243337373 3.309787661 3.482776124 3.6446155033 3.7967148579 3.9403822948 
4.0766625404 4.2062257927 4.3293159332 4.4457552476 4.5549954629 4.6562025979 4.7483653626 4.8304209599 4.9013943971 
4.9605449946 5.007506586 5.0423991559 5.0658848643 5.0791456203 5.0837739053 5.081589195 5.0744108022 5.0638263206 
5.0509905518 5.0364776834 5.0201983499 5.0013890654 4.9786827204 4.9502677305 4.9141333639 4.8683805006 4.8115587029 
4.742981185 4.6629726954 4.5730183958 4.4757983957 4.375106442 4.2756559037 4.1827676987 4.1019213722 4.0381580449 
3.9953785003 3.9756726023 3.9788882521 4.0026216524 4.0426648482 4.0937648494 4.150452259 4.2077309092 4.2615305111 
4.3089265109 4.3481758698 4.3786132895 4.4004398739 4.4144427057 4.4217018921 4.4233443812 4.4203780232 4.4136011681 
4.403559469 4.3905218616 4.3744607947 4.3550339189 4.3315700854 4.3030617375 4.268161024 4.2251741008 4.1720544634 
4.1064128053 4.0255776937 3.9267426935 3.8072134971 3.6647309501 3.4978109618 3.3060261619 3.0901623416 2.8522110275 
2.5951978549 2.3228813925 2.0393765054 1.7487565493 1.4546779769 1.1600623221 0.86686961444 0.57599842409 0.28734084785 
2.4104209445e-14 
_area 1 100 double
0 0.23365321095 0.93289983209 2.091437014 3.695331002 5.7192854007 8.1237501465 10.854284602 13.844032267 
17.019278961 20.307097829 23.6433878 26.979458752 30.28571112 33.551674878 36.782472299 39.99252389 43.197918652 
46.409139388 49.625649821 52.833279714 56.00454151 59.101139125 62.077302348 64.882672316 67.464444663 69.769743561 
71.749688409 73.365794665 74.597721341 75.449940507 75.954458087 76.167597426 76.160846357 76.008037866 75.772589751 
75.498405658 75.206232164 74.894605596 74.542835388 74.114087182 73.558729505 72.819658327 71.841050273 70.580073707 
69.018835726 67.172894803 65.093620314 62.863803252 60.588159641 58.382001838 56.361283599 54.633562427 53.285537157 
52.368668623 51.892881596 51.832649836 52.138414746 52.740180969 53.540275675 54.415675078 55.240657929 55.913034696 
56.370659176 56.596856476 56.614245902 56.467107315 56.198540177 55.833849558 55.379127477 54.83331905 54.201543749 
53.498371811 52.740780798 51.93870393 51.089990427 50.181109864 49.191102234 48.095130318 46.864863082 45.465893582 
43.855849945 41.987459818 39.81767809 37.319991814 34.495124102 31.376121729 28.026313593 24.531431069 20.988945581 
17.497897715 14.151506488 11.0332029 8.2150410406 5.7567080987 3.7042383032 2.0891429555 0.92933051116 0.23235006549 
8.2662010639e-14 
