# vtk DataFile Version 5.1
vtk output
ASCII
DATASET POLYDATA
POINTS 100 float
-4.69858 3.40529 1.67383 -4.71148 3.39667 1.67196 -4.74737 3.36971 1.67071 
-4.80378 3.32474 1.6705 -4.87697 3.26227 1.67194 -4.96245 3.18292 1.67567 
-5.05556 3.08735 1.68232 -5.15202 2.97617 1.69236 -5.24852 2.84994 1.70608 
-5.34296 2.70913 1.72354 -5.43465 2.5541 1.7446 -5.52422 2.38521 1.76896 
-5.61339 2.20277 1.79623 -5.70456 2.00721 1.82602 -5.80041 1.79905 1.85793 
-5.90344 1.57895 1.89167 -6.01565 1.34775 1.92698 -6.1383 1.10644 1.96368 
-6.27187 0.856077 2.00156 -6.41606 0.597792 2.04039 -6.57006 0.332676 2.07988 
-6.7327 0.0617329 2.11965 -6.90277 -0.21419 2.15927 -7.07921 -0.494453 2.19828 
-7.26126 -0.778664 2.23629 -7.44856 -1.06671 2.27297 -7.64105 -1.35875 2.30813 
-7.83894 -1.65527 2.3417 -8.0425 -1.95698 2.37373 -8.25197 -2.26487 2.40432 
-8.46736 -2.58006 2.43357 -8.68842 -2.90378 2.46152 -8.91458 -3.23726 2.48805 
-9.14501 -3.58157 2.51296 -9.37871 -3.93754 2.53595 -9.61462 -4.30566 2.55669 
-9.85176 -4.68597 2.57499 -10.0894 -5.07815 2.59083 -10.3269 -5.48147 2.6045 
-10.5641 -5.89498 2.61663 -10.8012 -6.31769 2.62815 -11.0382 -6.74872 2.64017 
-11.2756 -7.18757 2.65384 -11.5137 -7.63424 2.67009 -11.7524 -8.08936 2.68946 
-11.9916 -8.55417 2.71185 -12.2304 -9.03039 2.73643 -12.4675 -9.52002 2.76159 
-12.7011 -10.0251 2.7851 -12.9289 -10.5471 2.80422 -13.1479 -11.0872 2.81605 
-13.3551 -11.6454 2.81786 -13.5473 -12.2207 2.80736 -13.7214 -12.8111 2.78301 
-13.8747 -13.4136 2.74416 -14.0051 -14.0246 2.69112 -14.1112 -14.6401 2.62506 
-14.1924 -15.2561 2.54787 -14.249 -15.8689 2.46185 -14.282 -16.4756 2.36949 
-14.2932 -17.0737 2.27316 -14.2845 -17.6616 2.17492 -14.258 -18.2382 2.0764 
-14.216 -18.8029 1.97877 -14.1601 -19.3554 1.88282 -14.0916 -19.8954 1.789 
-14.0114 -20.4225 1.69764 -13.9198 -20.9361 1.60904 -13.8171 -21.4357 1.52354 
-13.7033 -21.9207 1.44157 -13.5788 -22.3907 1.36365 -13.444 -22.8456 1.29024 
-13.3002 -23.2857 1.22173 -13.149 -23.7117 1.15826 -12.9925 -24.1244 1.09972 
-12.8331 -24.5251 1.04567 -12.6736 -24.9145 0.995444 -12.5165 -25.293 0.948212 
-12.3642 -25.6606 0.903115 -12.2185 -26.0163 0.859414 -12.0811 -26.3587 0.816612 
-11.9531 -26.6856 0.774542 -11.8353 -26.9948 0.733385 -11.7287 -27.2842 0.693639 
-11.6339 -27.5521 0.656021 -11.552 -27.7978 0.621344 -11.4841 -28.0213 0.590377 
-11.4313 -28.2237 0.563716 -11.3946 -28.4069 0.5417 -11.3747 -28.5732 0.524368 
-11.3715 -28.7249 0.511471 -11.3841 -28.864 0.502524 -11.4104 -28.9916 0.496891 
-11.4471 -29.1079 0.493878 -11.4902 -29.2121 0.492808 -11.5348 -29.3025 0.493089 
-11.576 -29.3765 0.494239 -11.6091 -29.4317 0.495896 -11.6304 -29.4659 0.497799 
-11.6374 -29.4775 0.499776 
LINES 2 100
OFFSETS vtktypeint64
0 100 
CONNECTIVITY vtktypeint64
0 1 2 3 4 5 6 7 8 
9 10 11 12 13 14 15 16 17 
18 19 20 21 22 23 24 25 26 
27 28 29 30 31 32 33 34 35 
36 37 38 39 40 41 42 43 44 
45 46 47 48 49 50 51 52 53 
54 55 56 57 58 59 60 61 62 
63 64 65 66 67 68 69 70 71 
72 73 74 75 76 77 78 79 80 
81 82 83 84 85 86 87 88 89 
90 91 92 93 94 95 96 97 98 
99 
POINT_DATA 100
FIELD FieldData 3
_theta 1 100 double
0 0.031733259127 0.063466518254 0.095199777382 0.12693303651 0.15866629564 0.19039955476 0.22213281389 0.25386607302 
0.28559933214 0.31733259127 0.3490658504 0.38079910953 0.41253236865 0.44426562778 0.47599888691 0.50773214603 0.53946540516 
0.57119866429 0.60293192342 0.63466518254 0.66639844167 0.6981317008 0.72986495992 0.76159821905 0.79333147818 0.82506473731 
0.85679799643 0.88853125556 0.92026451469 0.95199777382 0.98373103294 1.0154642921 1.0471975512 1.0789308103 1.1106640695 
1.1423973286 1.1741305877 1.2058638468 1.237597106 1.2693303651 1.3010636242 1.3327968833 1.3645301425 1.3962634016 
1.4279966607 1.4597299198 1.491463179 1.5231964381 1.5549296972 1.5866629564 1.6183962155 1.6501294746 1.6818627337 
1.7135959929 1.745329252 1.7770625111 1.8087957702 1.8405290294 1.8722622885 1.9039955476 1.9357288068 1.9674620659 
1.999195325 2.0309285841 2.0626618433 2.0943951024 2.1261283615 2.1578616206 2.1895948798 2.2213281389 2.253061398 
2.2847946572 2.3165279163 2.3482611754 2.3799944345 2.4117276937 2.4434609528 2.4751942119 2.506927471 2.5386607302 
2.5703939893 2.6021272484 2.6338605076 2.6655937667 2.6973270258 2.7290602849 2.7607935441 2.7925268032 2.8242600623 
2.8559933214 2.8877265806 2.9194598397 2.9511930988 2.982926358 3.0146596171 3.0463928762 3.0781261353 3.1098593945 
3.1415926536 
_radius 1 100 double
1.1164229621e-14 0.35843084041 0.70925609687 1.0456088421 1.3622989824 1.6563039922 1.9269097767 2.1755018131 2.405067834 
2.6195130772 2.8229055896 3.0187702026 3.209541558 3.3962647301 3.5785894051 3.7550437115 3.9235131746 4.0818080847 
4.228190024 4.361746068 4.482540247 4.5915251506 4.6902497772 4.7804418939 4.8635666108 4.9404641362 5.01114933 
5.0748179837 5.1300575027 5.1752131286 5.2088254457 5.2300384684 5.2388834971 5.2363706584 5.2243617557 5.2052458444 
5.1814828079 5.1551110819 5.1273268848 5.0982304072 5.0668004691 5.031110101 4.9887433305 4.937331191 4.8751022988 
4.8013444227 4.7166965682 4.6232293448 4.5243143761 4.4243200996 4.3281924201 4.2409807533 4.1673582109 4.1111697155 
4.0750290127 4.059980993 4.0652751507 4.0883604899 4.1252222684 4.1710540337 4.2210778404 4.2712549289 4.3187055277 
4.3617888821 4.399900283 4.4331006229 4.4617142957 4.4860167899 4.5060836053 4.5218000354 4.5329684336 4.5394262295 
4.5411089883 4.5380358313 4.5302311118 4.5176116968 4.4998662784 4.4763434684 4.4459597471 4.4071407762 4.3578164284 
4.2954921962 4.2174095631 4.1207854307 4.0030954032 3.862350653 3.6973200835 3.5076649933 3.2939728785 3.0576925926 
2.8009832296 2.5264971805 2.2371271672 1.9357559841 1.6250499128 1.3073274844 0.98451607452 0.65818646757 0.3296378838 
2.0058400538e-14 
_area 1 100 double
0 0.34310487923 1.3466705434 2.9382266319 5.0117358505 7.4460362316 10.124611596 12.952884077 15.86993262 
18.852466319 21.910106399 25.072766964 28.373020395 31.828131698 35.427057384 39.126508575 42.857322925 46.538907359 
50.096859923 53.478166042 56.659757266 59.648848198 62.475953248 65.182837602 67.807883868 70.371251236 72.862480666 
75.233780464 77.402264542 79.262951384 80.711173004 81.669240352 82.109580016 82.06654879 81.632020585 80.934712105 
80.108603167 79.260232399 78.446126327 77.667618022 76.881519108 76.018173399 74.998940912 73.750628601 72.21880944 
70.382201132 68.266296928 65.949386802 63.553721848 61.22139304 59.083609919 57.235957737 55.728927677 54.576313881 
53.775481649 53.324868857 53.224952121 53.462555842 53.991548502 54.724578981 55.543144675 56.323648569 56.969600478 
57.436462287 57.737340363 57.924149684 58.049778767 58.132176584 58.145888001 58.043728781 57.785902544 57.356205578 
56.762034243 56.025526952 55.173879914 54.232412935 53.219374402 52.140198599 50.981563042 49.708781357 48.269353609 
46.60179942 44.647172812 42.361474232 39.726986419 36.758970765 33.504684145 30.03537285 26.435191442 22.791181312 
19.186766335 15.699550223 12.402525971 9.3661769147 6.6588730801 4.3448787293 2.4812028092 1.1147797744 0.28052227836 
0 
