# vtk DataFile Version 5.1
vtk output
ASCII
DATASET POLYDATA
POINTS 1002 float
-10.3626 -1.3568 -1.54126 -14.0379 -18.0017 -3.54858 -7.62696 -3.7143 4.39113 
-11.8201 -18.3594 1.54856 -9.64987 -9.1961 -2.01912 -7.81151 -9.23936 1.02801 
-16.697 -8.56545 1.06293 -15.9336 -10.5498 5.04572 -4.98606 -24.9355 -4.85354 
-0.774131 0.745414 -0.196093 -15.7546 -23.0979 -0.851653 -11.1155 2.07595 3.49979 
-10.9166 -2.3524 -1.56174 -11.5468 -3.566 -1.55961 -12.2643 -5.00965 -1.57042 
-13.0058 -6.78422 -1.57853 -13.6115 -8.9459 -1.61852 -14.0024 -11.2394 -1.84284 
-14.2307 -13.3111 -2.26914 -14.3199 -15.0781 -2.74494 -14.2504 -16.6258 -3.17827 
-10.0008 -1.6727 -1.80227 -9.6441 -2.13445 -2.03986 -9.31487 -2.7626 -2.22199 
-9.05722 -3.50897 -2.39689 -8.91744 -4.32804 -2.62738 -8.8898 -5.22516 -2.80057 
-8.94723 -6.17344 -2.74773 -9.10217 -7.13884 -2.50788 -9.35649 -8.14287 -2.23694 
-11.0741 -1.68971 -1.3031 -11.8335 -2.12479 -1.04425 -12.6062 -2.68732 -0.741047 
-13.3536 -3.38535 -0.394084 -14.0566 -4.1863 -0.0450552 -14.7301 -5.0379 0.243378 
-15.3773 -5.91063 0.457599 -15.9415 -6.8011 0.660411 -16.3714 -7.69985 0.877848 
-9.57362 -0.632989 -1.65658 -8.67964 0.0505048 -1.7424 -7.6454 0.656594 -1.76308 
-6.46076 1.20717 -1.72485 -5.1905 1.66597 -1.65278 -3.934 1.86859 -1.52062 
-2.80092 1.80042 -1.28834 -1.88262 1.59779 -0.968388 -1.20707 1.26007 -0.595695 
-10.2785 -0.65923 -1.31618 -10.2259 0.0299696 -1.02665 -10.2135 0.705718 -0.677678 
-10.2589 1.28833 -0.226629 -10.3619 1.75943 0.310682 -10.5249 2.17456 0.854514 
-10.7459 2.45548 1.45489 -10.9517 2.49484 2.1756 -11.0704 2.33582 2.90284 
-13.6628 -17.7607 -3.62391 -13.2609 -17.3933 -3.65672 -12.8251 -16.868 -3.62733 
-12.3649 -16.1845 -3.49623 -11.959 -15.3519 -3.25379 -11.6429 -14.3687 -2.90931 
-11.3202 -13.2058 -2.51217 -10.897 -11.853 -2.19176 -10.3412 -10.4393 -2.03704 
-14.5709 -17.3375 -3.21121 -15.1073 -16.571 -2.80808 -15.5882 -15.6917 -2.35534 
-15.9653 -14.665 -1.85987 -16.272 -13.5472 -1.32309 -16.511 -12.4571 -0.784761 
-16.6295 -11.4205 -0.282758 -16.6659 -10.4104 0.19468 -16.6903 -9.44531 0.651058 
-13.4524 -19.21 -3.94572 -12.6602 -20.4355 -4.33512 -11.6731 -21.5758 -4.70434 
-10.5863 -22.5434 -5.06933 -9.51216 -23.3486 -5.44733 -8.40784 -24.0616 -5.80673 
-7.18877 -24.6359 -6.02457 -6.03751 -24.955 -5.93044 -5.26958 -25.0235 -5.48629 
-14.0702 -18.9504 -3.66041 -14.0485 -19.9436 -3.68089 -14.0379 -20.9301 -3.63381 
-14.175 -21.8377 -3.56859 -14.4512 -22.5759 -3.42094 -14.7308 -23.0647 -3.09336 
-15.029 -23.3323 -2.61652 -15.3769 -23.4456 -2.05434 -15.6462 -23.376 -1.44328 
-8.23892 -4.75445 4.51634 -8.87652 -5.9824 4.64493 -9.56102 -7.34288 4.65397 
-10.2998 -8.80614 4.43915 -10.9844 -10.4191 4.07054 -11.4839 -12.1576 3.60619 
-11.772 -13.9018 3.0418 -11.8915 -15.5569 2.47855 -11.8942 -17.0568 1.99288 
-7.30603 -4.08295 4.1778 -7.02919 -4.50741 3.93333 -6.83604 -5.00737 3.62191 
-6.69142 -5.57355 3.27219 -6.59551 -6.15747 2.93567 -6.62581 -6.78355 2.59089 
-6.79258 -7.48119 2.20537 -7.04644 -8.14457 1.80401 -7.3858 -8.70271 1.41065 
-8.32032 -3.99899 4.69949 -8.9853 -4.39014 5.07514 -9.67426 -4.91498 5.43623 
-10.6 -5.59764 5.61546 -11.7818 -6.45845 5.62692 -12.9309 -7.45003 5.64312 
-13.8885 -8.4301 5.66353 -14.7098 -9.27362 5.56516 -15.3998 -9.96218 5.33419 
-6.79207 -2.98161 4.11675 -5.91633 -2.2511 3.75694 -5.03021 -1.52961 3.33975 
-4.07053 -0.844412 2.94498 -3.07677 -0.290186 2.55736 -2.21966 0.030923 2.10565 
-1.53049 0.209208 1.59369 -0.994898 0.415557 1.02899 -0.72449 0.632139 0.410174 
-7.46123 -2.88848 4.46411 -7.34626 -1.9962 4.52409 -7.37489 -1.03581 4.51413 
-7.58429 -0.0950484 4.46155 -7.92677 0.68938 4.42387 -8.4207 1.29494 4.35437 
-9.11623 1.74637 4.20814 -9.89564 2.00957 4.02377 -10.5797 2.09586 3.80109 
-11.4735 -18.0447 1.48469 -11.1167 -17.597 1.42192 -10.8081 -16.9143 1.35857 
-10.5891 -15.9927 1.32577 -10.3756 -14.9145 1.31872 -10.0546 -13.6838 1.33991 
-9.61366 -12.3243 1.41123 -9.07359 -11.0339 1.43475 -8.45526 -9.99956 1.29416 
-12.2369 -17.8577 1.90483 -12.6901 -17.2736 2.29927 -13.1729 -16.6136 2.73626 
-13.6556 -15.9021 3.17969 -14.1151 -15.1146 3.59575 -14.5769 -14.2318 3.98984 
-15.0493 -13.3327 4.35433 -15.4632 -12.4511 4.65473 -15.7552 -11.5252 4.88022 
-11.4638 -19.4279 1.00588 -10.9989 -20.5743 0.372736 -10.354 -21.7722 -0.263835 
-9.46681 -22.9107 -0.896119 -8.42354 -23.9007 -1.58364 -7.35158 -24.7318 -2.25605 
-6.30343 -25.305 -2.85863 -5.43985 -25.4879 -3.50273 -4.98875 -25.3145 -4.21535 
-11.9652 -19.2976 1.32865 -12.129 -20.2523 1.12861 -12.3579 -21.127 0.933932 
-12.6983 -21.8685 0.722254 -13.1891 -22.4911 0.518894 -13.8256 -22.928 0.353227 
-14.4797 -23.1404 0.172842 -15.0138 -23.2285 -0.102827 -15.4244 -23.2315 -0.469924 
-9.34998 -9.18192 -1.89482 -9.01563 -9.16751 -1.74102 -8.66548 -9.12902 -1.57363 
-8.34246 -9.06931 -1.33377 -8.05339 -9.05525 -0.97139 -7.80563 -9.1174 -0.565009 
-7.66137 -9.18556 -0.196917 -7.64666 -9.20621 0.175324 -7.71181 -9.20939 0.597689 
-10.2658 -11.244 -1.95149 -10.4026 -13.7231 -2.23493 -9.94448 -16.038 -2.84444 
-9.13143 -17.7523 -3.56425 -8.23006 -19.1941 -4.17022 -7.32009 -20.7239 -4.59716 
-6.49159 -22.0763 -4.8865 -5.82844 -23.1017 -5.04026 -5.31806 -24.0323 -5.02627 
-8.54562 -7.6224 -2.2532 -7.28414 -6.42728 -2.49409 -6.12815 -5.37927 -2.48967 
-5.01089 -4.28572 -2.27526 -3.80535 -3.24426 -2.04492 -2.73465 -2.28314 -1.80667 
-1.95632 -1.33413 -1.5006 -1.35057 -0.48457 -1.13486 -0.917799 0.192416 -0.697765 
-8.68731 -10.4814 0.779901 -9.36557 -12.4961 0.358041 -9.41738 -15.1801 -0.292711 
-8.80863 -17.7834 -1.06853 -7.95165 -19.7397 -1.80893 -7.09214 -21.2093 -2.50694 
-6.27475 -22.4199 -3.19179 -5.61941 -23.3938 -3.80336 -5.18463 -24.2138 -4.33897 
-6.8477 -8.31047 0.947121 -5.8409 -7.39151 0.885561 -4.75989 -6.41493 0.873571 
-3.58558 -5.50324 0.8169 -2.52466 -4.61981 0.654414 -1.75137 -3.55759 0.463655 
-1.16517 -2.37565 0.291897 -0.727624 -1.25668 0.106804 -0.5845 -0.215907 -0.0737118 
-16.8662 -8.56411 1.40798 -17.029 -8.55856 1.80561 -17.1798 -8.57274 2.33767 
-17.2676 -8.66384 2.99229 -17.2244 -8.86746 3.59496 -17.0487 -9.15839 4.04945 
-16.811 -9.50338 4.41879 -16.5596 -9.8816 4.72103 -16.2761 -10.2478 4.92443 
-17.0317 -9.97018 0.937681 -17.4499 -11.4285 0.715457 -17.8686 -12.9587 0.386248 
-18.0762 -14.8043 -0.0485009 -18.0062 -16.9888 -0.496211 -17.7859 -18.9823 -0.770812 
-17.4351 -20.3853 -0.837794 -16.9085 -21.4032 -0.845509 -16.3068 -22.308 -0.862867 
-16.4675 -7.18015 1.35123 -16.1454 -5.75989 1.64881 -15.7366 -4.36379 1.95913 
-15.2783 -3.00484 2.26048 -14.7926 -1.67683 2.53476 -14.2731 -0.459802 2.79214 
-13.6274 0.489375 3.04344 -12.8049 1.15337 3.26663 -11.9309 1.65743 3.42422 
-16.3331 -11.8073 4.6532 -16.7592 -13.266 4.24922 -17.1068 -14.8116 3.76171 
-17.2822 -16.2747 3.13941 -17.3228 -17.6652 2.46516 -17.2258 -19.0201 1.76954 
-16.9255 -20.2155 1.02659 -16.5056 -21.2412 0.314262 -16.1107 -22.2123 -0.30083 
-15.7662 -9.14148 5.35887 -15.5288 -7.54572 5.58716 -15.1308 -5.75187 5.66982 
-14.577 -3.87342 5.66756 -14.0183 -2.18302 5.60632 -13.5071 -0.885373 5.37444 
-12.9361 0.0668157 4.9584 -12.2881 0.834547 4.47883 -11.6627 1.50321 3.99334 
-4.9846 -25.8102 -5.0009 -5.56671 -26.3298 -5.02688 -6.95018 -26.3872 -4.73509 
-8.77667 -26.3503 -4.0664 -10.4393 -26.3236 -3.2899 -11.8509 -25.9777 -2.65694 
-13.1829 -25.3731 -2.11662 -14.3269 -24.7387 -1.60805 -15.1539 -23.9945 -1.18621 
-1.12159 1.65646 0.10822 -1.68508 2.51724 0.440106 -2.43143 3.07524 0.697246 
-3.52029 3.36293 0.935621 -4.95662 3.60285 1.36735 -6.46194 3.70299 1.96871 
-7.8858 3.51375 2.48804 -9.17764 3.12479 2.86373 -10.2473 2.62775 3.19337 
-10.6047 -2.79282 -1.79437 -10.2872 -3.36169 -2.01526 -11.3126 -4.10123 -1.7876 
-10.0193 -4.05364 -2.21096 -11.0708 -4.75595 -1.99596 -12.1345 -5.69393 -1.78505 
-9.90473 -4.86949 -2.38962 -10.9304 -5.59944 -2.14526 -12.0058 -6.60117 -1.92213 
-12.9326 -7.79116 -1.75465 -9.93963 -5.83315 -2.501 -10.9667 -6.67164 -2.21983 
-11.9606 -7.79403 -1.99768 -12.8356 -9.07213 -1.87837 -13.4913 -10.2619 -1.85506 
-10.0122 -6.90976 -2.44674 -11.0407 -7.89562 -2.20251 -11.9323 -9.14435 -2.09065 
-12.6882 -10.49 -2.07291 -13.3019 -11.6808 -2.14691 -13.7897 -12.6053 -2.23697 
-10.0947 -8.03604 -2.26801 -11.0363 -9.17339 -2.12978 -11.7932 -10.4915 -2.20793 
-12.393 -11.8381 -2.3793 -12.9546 -13.0098 -2.54471 -13.4728 -13.9139 -2.68198 
-13.9151 -14.581 -2.74699 -10.216 -9.21575 -2.11115 -10.9864 -10.5025 -2.11131 
-11.5812 -11.845 -2.33919 -12.0167 -13.1116 -2.6769 -12.457 -14.2082 -2.95233 
-12.9716 -15.0936 -3.12832 -13.4578 -15.7759 -3.2107 -13.8715 -16.274 -3.21687 
-9.13309 -0.928382 -1.96 -8.13176 -0.24732 -2.05397 -8.71264 -1.40977 -2.19924 
-6.96982 0.31675 -2.04755 -7.60842 -0.764794 -2.27299 -8.33121 -2.11813 -2.349 
-5.69292 0.785822 -1.97376 -6.33849 -0.268812 -2.25332 -7.13797 -1.55329 -2.41652 
-8.01986 -2.96864 -2.53879 -4.39411 1.10448 -1.8538 -5.02256 0.0963362 -2.16269 
-5.8293 -1.12957 -2.40764 -6.80842 -2.49104 -2.61893 -7.8446 -3.86693 -2.82454 
-3.18074 1.14735 -1.66611 -3.76947 0.27992 -1.99271 -4.57699 -0.854808 -2.28437 
-5.59892 -2.13587 -2.53976 -6.71949 -3.4637 -2.83377 -7.82733 -4.79664 -2.98716 
-2.17317 0.963479 -1.40915 -2.69038 0.205962 -1.75772 -3.4555 -0.796588 -2.06631 
-4.48992 -1.97185 -2.31864 -5.67367 -3.20056 -2.58761 -6.812 -4.4613 -2.87451 
-7.93914 -5.73766 -2.86892 -1.42286 0.644933 -1.08722 -1.88674 -0.0730053 -1.47765 
-2.5588 -0.983179 -1.80646 -3.49699 -2.042 -2.07394 -4.6894 -3.14517 -2.28957 
-5.87979 -4.29956 -2.55501 -6.99279 -5.46501 -2.73081 -8.18093 -6.67527 -2.57551 
-0.896227 -0.839138 -0.579125 -1.17309 -2.04525 -0.423449 -1.47293 -1.65667 -1.04053 
-1.63993 -3.30191 -0.266625 -1.8105 -2.93949 -0.915562 -2.16852 -2.5648 -1.42464 
-2.28672 -4.40823 -0.0847627 -2.35516 -4.07598 -0.771424 -2.63444 -3.7059 -1.30143 
-3.10754 -3.42558 -1.73523 -3.23061 -5.3524 0.131653 -3.16475 -5.10118 -0.604411 
-3.3712 -4.77544 -1.17215 -3.76057 -4.52949 -1.64214 -4.31552 -4.39546 -2.02189 
[...]
POINT_DATA 1002
FIELD FieldData 4
_paraPhi 1 1002 double
6.2831853072 3.1415926536 6.2831853072 3.1415926536 4.7123889804 4.7123889804 1.5707963268 1.5707963268 3.6951670125 
5.7296109483 2.5880182947 0.5535743589 6.2831853072 6.2831853072 6.2831853072 6.2831853072 3.1415926536 3.1415926536 
3.1415926536 3.1415926536 3.1415926536 6.1053039672 5.898798347 5.6768734901 5.4599499503 5.2659633393 5.1032165617 
4.9713148346 4.8656852733 4.7809517865 0.17788134 0.38438696014 0.60631181711 0.82323535693 1.0172219679 1.1799687454 
1.3118704726 1.4175000338 1.5022335207 6.1892828907 6.1070320098 6.035312792 5.9728339911 5.9183214791 5.8706119594 
5.8286879411 5.7916808611 5.7588591896 0.093902416448 0.17615329733 0.2478725152 0.31035131605 0.36486382811 0.41257334776 
0.45449736604 0.4915044461 0.52432611754 3.3194739936 3.5259796137 3.7479044707 3.9648280105 4.1588146215 4.321561399 
4.4534631262 4.5590926874 4.6438261743 2.9637113136 2.7572056934 2.5352808365 2.3183572967 2.1243706857 1.9616239082 
1.829722181 1.7240926197 1.6393591329 3.23549507 3.3177459509 3.3894651688 3.4519439696 3.5064564817 3.5541660013 
3.5960900196 3.6330970997 3.6659187711 3.0476902371 2.9654393563 2.8937201384 2.8312413375 2.7767288255 2.7290193058 
2.6870952876 2.6500882075 2.617266536 6.2831853072 6.2831853072 6.2831853072 6.2831853072 3.1415926536 3.1415926536 
3.1415926536 3.1415926536 3.1415926536 6.1053039672 5.898798347 5.6768734901 5.4599499503 5.2659633393 5.1032165617 
4.9713148346 4.8656852733 4.7809517865 0.17788134 0.38438696014 0.60631181711 0.82323535693 1.0172219679 1.1799687454 
1.3118704726 1.4175000338 1.5022335207 6.1892828907 6.1070320098 6.035312792 5.9728339911 5.9183214791 5.8706119594 
5.8286879411 5.7916808611 5.7588591896 0.093902416448 0.17615329733 0.2478725152 0.31035131605 0.36486382811 0.41257334776 
0.45449736604 0.4915044461 0.52432611754 3.3194739936 3.5259796137 3.7479044707 3.9648280105 4.1588146215 4.321561399 
4.4534631262 4.5590926874 4.6438261743 2.9637113136 2.7572056934 2.5352808365 2.3183572967 2.1243706857 1.9616239082 
1.829722181 1.7240926197 1.6393591329 3.23549507 3.3177459509 3.3894651688 3.4519439696 3.5064564817 3.5541660013 
3.5960900196 3.6330970997 3.6659187711 3.0476902371 2.9654393563 2.8937201384 2.8312413375 2.7767288255 2.7290193058 
2.6870952876 2.6500882075 2.617266536 4.7123889804 4.7123889804 4.7123889804 4.7123889804 4.7123889804 4.7123889804 
4.7123889804 4.7123889804 4.7123889804 4.6087898617 4.4991390697 4.3857031936 4.2712800401 4.1588146215 4.0509635631 
3.94975894 3.8564636551 3.7716124825 4.8159880991 4.9256388911 5.0390747672 5.1534979207 5.2659633393 5.3738143976 
5.4750190208 5.5683143056 5.6531654782 4.6087898617 4.4991390697 4.3857031936 4.2712800401 4.1588146215 4.0509635631 
3.94975894 3.8564636551 3.7716124825 4.8159880991 4.9256388911 5.0390747672 5.1534979207 5.2659633393 5.3738143976 
5.4750190208 5.5683143056 5.6531654782 1.5707963268 1.5707963268 1.5707963268 1.5707963268 1.5707963268 1.5707963268 
1.5707963268 1.5707963268 1.5707963268 1.6743954455 1.7840462375 1.8974821136 2.0119052671 2.1243706857 2.232221744 
2.3334263672 2.426721652 2.5115728246 1.4671972081 1.3575464161 1.24411054 1.1296873865 1.0172219679 0.90937090954 
0.80816628637 0.71487100155 0.63001982895 1.6743954455 1.7840462375 1.8974821136 2.0119052671 2.1243706857 2.232221744 
2.3334263672 2.426721652 2.5115728246 1.4671972081 1.3575464161 1.24411054 1.1296873865 1.0172219679 0.90937090954 
0.80816628637 0.71487100155 0.63001982895 3.6007720849 3.4966939854 3.3839471039 3.2645756454 3.1415926536 3.0186096618 
2.8992382033 2.7864913217 2.6824132222 5.8240058758 5.9280839753 6.0408308569 6.1602023154 6.2831853072 0.12298299178 
0.2423544503 0.35510133185 0.45917943135 6.0560271438 5.7885595667 5.9702140275 5.5125918794 5.6029703303 5.7885595667 
5.2659633393 5.2659633393 5.2659633393 5.2659633393 5.0674903122 5.0120975802 4.9155579264 4.7123889804 4.1588146215 
4.9155579264 4.8353719722 4.7123889804 4.5092200343 4.1588146215 3.6362183941 4.8004512023 4.7123889804 4.5894059886 
4.4126803806 4.1588146215 3.8218076305 3.4545639333 4.7123889804 4.6243267584 4.5092200343 4.3572876485 4.1588146215 
3.9121860814 3.6362183941 3.368750817 6.0174235957 5.9434319871 5.8263323547 5.8809213739 5.7674481418 5.6279784266 
5.8278025282 5.718968232 5.5891129425 5.4372443565 5.7823484065 5.678536687 5.5575666702 5.4192596322 5.2659633393 
5.743164462 5.6444075337 5.5314983644 5.4046708639 5.2659633393 5.1195510325 5.7091357773 5.6152775188 5.5096229709 
5.3926039573 5.2659633393 5.1329233157 4.9978930058 5.6793730533 5.5901633916 5.4910209005 5.3824597928 5.2659633393 
5.1440684722 5.0201624502 4.8979782167 5.5683143056 5.4750190208 5.4750190208 5.3738143976 5.3738143976 5.3738143976 
5.2659633393 5.2659633393 5.2659633393 5.2659633393 5.1534979207 5.1534979207 5.1534979207 5.1534979207 5.1534979207 
5.0390747672 5.0390747672 5.0390747672 5.0390747672 5.0390747672 5.0390747672 4.9256388911 4.9256388911 4.9256388911 
4.9256388911 4.9256388911 4.9256388911 4.9256388911 4.8159880991 4.8159880991 4.8159880991 4.8159880991 4.8159880991 
4.8159880991 4.8159880991 4.8159880991 4.6087898617 4.6087898617 4.4991390697 4.6087898617 4.4991390697 4.3857031936 
4.6087898617 4.4991390697 4.3857031936 4.2712800401 4.6087898617 4.4991390697 4.3857031936 4.2712800401 4.1588146215 
4.6087898617 4.4991390697 4.3857031936 4.2712800401 4.1588146215 4.0509635631 4.6087898617 4.4991390697 4.3857031936 
4.2712800401 4.1588146215 4.0509635631 3.94975894 4.6087898617 4.4991390697 4.3857031936 4.2712800401 4.1588146215 
4.0509635631 3.94975894 3.8564636551 4.526799744 4.4046155105 4.426884955 4.2807094886 4.2918546451 4.3052269283 
4.1588146215 4.1588146215 4.1588146215 4.1588146215 4.042318168 4.0321740035 4.0201070968 4.0055183285 3.9875336042 
3.9337570603 3.9151549899 3.8932795963 3.8672112905 3.8356650183 3.7967995342 3.8346145692 3.809500442 3.7803704271 
3.7462412737 3.7058097288 3.657329819 3.5984456061 3.7454049075 3.7156421835 3.6816134988 3.6424295543 3.5969754326 
3.5438565869 3.4813459737 3.4073543651 3.5642842451 3.4524645613 3.5233842518 3.3320300872 3.403123212 3.4773852225 
3.20576226 3.2746326772 3.348015857 3.4255060145 3.0774230472 3.1415926536 3.2112816139 3.2864685043 3.3668817272 
2.95115522 3.00855263 3.0719036933 3.1415926536 3.2178377658 3.3005964304 2.8307207459 2.8800620952 2.9351694502 
2.9967168029 3.0653475414 3.1415926536 3.225752376 2.718901062 2.7598010554 2.8058000847 2.8576792927 2.91630358 
2.9825888767 3.0574329311 3.1415926536 3.5642842451 3.5233842518 3.4524645613 3.4773852225 3.403123212 3.3320300872 
3.4255060145 3.348015857 3.2746326772 3.20576226 3.3668817272 3.2864685043 3.2112816139 3.1415926536 3.0774230472 
3.3005964304 3.2178377658 3.1415926536 3.0719036933 3.00855263 2.95115522 3.225752376 3.1415926536 3.0653475414 
2.9967168029 2.9351694502 2.8800620952 2.8307207459 3.1415926536 3.0574329311 2.9825888767 2.91630358 2.8576792927 
2.8058000847 2.7598010554 2.718901062 4.526799744 4.426884955 4.4046155105 4.3052269283 4.2918546451 4.2807094886 
4.1588146215 4.1588146215 4.1588146215 4.1588146215 3.9875336042 4.0055183285 4.0201070968 4.0321740035 4.042318168 
3.7967995342 3.8356650183 3.8672112905 3.8932795963 3.9151549899 3.9337570603 3.5984456061 3.657329819 3.7058097288 
3.7462412737 3.7803704271 3.809500442 3.8346145692 3.4073543651 3.4813459737 3.5438565869 3.5969754326 3.6424295543 
3.6816134988 3.7156421835 3.7454049075 4.7123889804 4.8004512023 4.6243267584 4.9155579264 4.7123889804 4.5092200343 
5.0674903122 4.8353719722 4.5894059886 4.3572876485 5.2659633393 5.0120975802 4.7123889804 4.4126803806 4.1588146215 
5.5125918794 5.2659633393 4.9155579264 4.5092200343 4.1588146215 3.9121860814 5.7885595667 5.6029703303 5.2659633393 
4.7123889804 4.1588146215 3.8218076305 3.6362183941 6.0560271438 5.9702140275 5.7885595667 5.2659633393 4.1588146215 
3.6362183941 3.4545639333 3.368750817 0.22715816343 0.49462574053 0.3129712797 0.77059342779 0.68021497688 0.49462574053 
1.0172219679 1.0172219679 1.0172219679 1.0172219679 1.2156949949 1.271087727 1.3676273807 1.5707963268 2.1243706857 
1.3676273807 1.447813335 1.5707963268 1.7739652728 2.1243706857 2.6469669131 1.4827341049 1.5707963268 1.6937793186 
1.8705049266 2.1243706857 2.4613776767 2.8286213739 1.5707963268 1.6588585487 1.7739652728 1.9258976586 2.1243706857 
2.3709992258 2.6469669131 2.9144344902 1.7563855631 1.8785697967 1.8563003522 2.0024758186 1.9913306621 1.9779583789 
2.1243706857 2.1243706857 2.1243706857 2.1243706857 2.2408671392 2.2510113037 2.2630782103 2.2776669786 2.295651703 
2.3494282469 2.3680303173 2.3899057108 2.4159740166 2.4475202889 2.486385773 2.448570738 2.4736848652 2.5028148801 
2.5369440334 2.5773755784 2.6258554882 2.6847397011 2.5377803997 2.5675431237 2.6015718084 2.6407557529 2.6862098746 
2.7393287203 2.8018393335 2.8758309421 1.6743954455 1.6743954455 1.7840462375 1.6743954455 1.7840462375 1.8974821136 
1.6743954455 1.7840462375 1.8974821136 2.0119052671 1.6743954455 1.7840462375 1.8974821136 2.0119052671 2.1243706857 
1.6743954455 1.7840462375 1.8974821136 2.0119052671 2.1243706857 2.232221744 1.6743954455 1.7840462375 1.8974821136 
2.0119052671 2.1243706857 2.232221744 2.3334263672 1.6743954455 1.7840462375 1.8974821136 2.0119052671 2.1243706857 
2.232221744 2.3334263672 2.426721652 1.4671972081 1.3575464161 1.4671972081 1.24411054 1.3575464161 1.4671972081 
1.1296873865 1.24411054 1.3575464161 1.4671972081 1.0172219679 1.1296873865 1.24411054 1.3575464161 1.4671972081 
0.90937090954 1.0172219679 1.1296873865 1.24411054 1.3575464161 1.4671972081 0.80816628637 0.90937090954 1.0172219679 
1.1296873865 1.24411054 1.3575464161 1.4671972081 0.71487100155 0.80816628637 0.90937090954 1.0172219679 1.1296873865 
1.24411054 1.3575464161 1.4671972081 0.60381225391 0.57404952988 0.69302191562 0.54002084522 0.66790778838 0.79216440667 
0.50083690068 0.63877777351 0.77356233629 0.90072551443 0.45538277901 0.60464862014 0.75168694275 0.89058134991 1.0172219679 
0.40226393329 0.56421707518 0.72561863695 0.87851444325 1.0172219679 1.139116835 0.33975332011 0.51573716537 0.69407236469 
0.86392567495 1.0172219679 1.1502619915 1.2630228569 0.26576171152 0.45685295248 0.6552068806 0.84594095064 1.0172219679 
1.1636342747 1.2852923014 1.3852070904 0.22715816343 0.3129712797 0.49462574053 0.49462574053 0.68021497688 0.77059342779 
1.0172219679 1.0172219679 1.0172219679 1.0172219679 2.1243706857 1.5707963268 1.3676273807 1.271087727 1.2156949949 
2.6469669131 2.1243706857 1.7739652728 1.5707963268 1.447813335 1.3676273807 2.8286213739 2.4613776767 2.1243706857 
1.8705049266 1.6937793186 1.5707963268 1.4827341049 2.9144344902 2.6469669131 2.3709992258 2.1243706857 1.9258976586 
1.7739652728 1.6588585487 1.5707963268 1.7563855631 1.8563003522 1.8785697967 1.9779583789 1.9913306621 2.0024758186 
2.1243706857 2.1243706857 2.1243706857 2.1243706857 2.295651703 2.2776669786 2.2630782103 2.2510113037 2.2408671392 
2.486385773 2.4475202889 2.4159740166 2.3899057108 2.3680303173 2.3494282469 2.6847397011 2.6258554882 2.5773755784 
2.5369440334 2.5028148801 2.4736848652 2.448570738 2.8758309421 2.8018393335 2.7393287203 2.6862098746 2.6407557529 
2.6015718084 2.5675431237 2.5377803997 5.8604937156 5.901393709 5.9723133995 5.9473927383 6.0216547488 6.0927478736 
5.9992719463 6.0767621038 6.1501452836 6.2190157008 6.0578962336 6.1383094565 6.2134963469 0 0.064169606361 
6.1241815303 6.206940195 6.2831853072 0.069688960264 0.13304002361 0.19043743361 6.1990255847 0 0.07624511221 
0.14487585072 0.20642320337 0.26153055843 0.3108719077 0 0.084159722458 0.15900377685 0.22528907359 0.28391336087 
0.3357925689 0.38179159818 0.42269159155 5.8604937156 5.9723133995 5.901393709 6.0927478736 6.0216547488 5.9473927383 
6.2190157008 6.1501452836 6.0767621038 5.9992719463 0.064169606361 0 6.2134963469 6.1383094565 6.0578962336 
0.19043743361 0.13304002361 0.069688960264 6.2831853072 6.206940195 6.1241815303 0.3108719077 0.26153055843 0.20642320337 
0.14487585072 0.07624511221 6.2831853072 6.1990255847 0.42269159155 0.38179159818 0.3357925689 0.28391336087 0.22528907359 
0.15900377685 0.084159722458 0 5.6793730533 5.7091357773 5.5901633916 5.743164462 5.6152775188 5.4910209005 
5.7823484065 5.6444075337 5.5096229709 5.3824597928 5.8278025282 5.678536687 5.5314983644 5.3926039573 5.2659633393 
5.8809213739 5.718968232 5.5575666702 5.4046708639 5.2659633393 5.1440684722 5.9434319871 5.7674481418 5.5891129425 
5.4192596322 5.2659633393 5.1329233157 5.0201624502 6.0174235957 5.8263323547 5.6279784266 5.4372443565 5.2659633393 
5.1195510325 4.9978930058 4.8979782167 1.3852070904 1.2852923014 1.2630228569 1.1636342747 1.1502619915 1.139116835 
1.0172219679 1.0172219679 1.0172219679 1.0172219679 0.84594095064 0.86392567495 0.87851444325 0.89058134991 0.90072551443 
0.6552068806 0.69407236469 0.72561863695 0.75168694275 0.77356233629 0.79216440667 0.45685295248 0.51573716537 0.56421707518 
0.60464862014 0.63877777351 0.66790778838 0.69302191562 0.26576171152 0.33975332011 0.40226393329 0.45538277901 0.50083690068 
0.54002084522 0.57404952988 0.60381225391 
_paraPhiHalf 1 1002 double
0 3.1415926536 0 3.1415926536 1.5707963268 1.5707963268 1.5707963268 1.5707963268 2.5880182947 
0.5535743589 2.5880182947 0.5535743589 0 0 0 0 3.1415926536 3.1415926536 
3.1415926536 3.1415926536 3.1415926536 0.17788134 0.38438696014 0.60631181711 0.82323535693 1.0172219679 1.1799687454 
1.3118704726 1.4175000338 1.5022335207 0.17788134 0.38438696014 0.60631181711 0.82323535693 1.0172219679 1.1799687454 
1.3118704726 1.4175000338 1.5022335207 0.093902416448 0.17615329733 0.2478725152 0.31035131605 0.36486382811 0.41257334776 
0.45449736604 0.4915044461 0.52432611754 0.093902416448 0.17615329733 0.2478725152 0.31035131605 0.36486382811 0.41257334776 
0.45449736604 0.4915044461 0.52432611754 2.9637113136 2.7572056934 2.5352808365 2.3183572967 2.1243706857 1.9616239082 
1.829722181 1.7240926197 1.6393591329 2.9637113136 2.7572056934 2.5352808365 2.3183572967 2.1243706857 1.9616239082 
1.829722181 1.7240926197 1.6393591329 3.0476902371 2.9654393563 2.8937201384 2.8312413375 2.7767288255 2.7290193058 
2.6870952876 2.6500882075 2.617266536 3.0476902371 2.9654393563 2.8937201384 2.8312413375 2.7767288255 2.7290193058 
2.6870952876 2.6500882075 2.617266536 0 0 0 0 3.1415926536 3.1415926536 
3.1415926536 3.1415926536 3.1415926536 0.17788134 0.38438696014 0.60631181711 0.82323535693 1.0172219679 1.1799687454 
1.3118704726 1.4175000338 1.5022335207 0.17788134 0.38438696014 0.60631181711 0.82323535693 1.0172219679 1.1799687454 
1.3118704726 1.4175000338 1.5022335207 0.093902416448 0.17615329733 0.2478725152 0.31035131605 0.36486382811 0.41257334776 
0.45449736604 0.4915044461 0.52432611754 0.093902416448 0.17615329733 0.2478725152 0.31035131605 0.36486382811 0.41257334776 
0.45449736604 0.4915044461 0.52432611754 2.9637113136 2.7572056934 2.5352808365 2.3183572967 2.1243706857 1.9616239082 
1.829722181 1.7240926197 1.6393591329 2.9637113136 2.7572056934 2.5352808365 2.3183572967 2.1243706857 1.9616239082 
1.829722181 1.7240926197 1.6393591329 3.0476902371 2.9654393563 2.8937201384 2.8312413375 2.7767288255 2.7290193058 
2.6870952876 2.6500882075 2.617266536 3.0476902371 2.9654393563 2.8937201384 2.8312413375 2.7767288255 2.7290193058 
2.6870952876 2.6500882075 2.617266536 1.5707963268 1.5707963268 1.5707963268 1.5707963268 1.5707963268 1.5707963268 
1.5707963268 1.5707963268 1.5707963268 1.6743954455 1.7840462375 1.8974821136 2.0119052671 2.1243706857 2.232221744 
2.3334263672 2.426721652 2.5115728246 1.4671972081 1.3575464161 1.24411054 1.1296873865 1.0172219679 0.90937090954 
0.80816628637 0.71487100155 0.63001982895 1.6743954455 1.7840462375 1.8974821136 2.0119052671 2.1243706857 2.232221744 
2.3334263672 2.426721652 2.5115728246 1.4671972081 1.3575464161 1.24411054 1.1296873865 1.0172219679 0.90937090954 
0.80816628637 0.71487100155 0.63001982895 1.5707963268 1.5707963268 1.5707963268 1.5707963268 1.5707963268 1.5707963268 
1.5707963268 1.5707963268 1.5707963268 1.6743954455 1.7840462375 1.8974821136 2.0119052671 2.1243706857 2.232221744 
2.3334263672 2.426721652 2.5115728246 1.4671972081 1.3575464161 1.24411054 1.1296873865 1.0172219679 0.90937090954 
0.80816628637 0.71487100155 0.63001982895 1.6743954455 1.7840462375 1.8974821136 2.0119052671 2.1243706857 2.232221744 
2.3334263672 2.426721652 2.5115728246 1.4671972081 1.3575464161 1.24411054 1.1296873865 1.0172219679 0.90937090954 
0.80816628637 0.71487100155 0.63001982895 2.6824132222 2.7864913217 2.8992382033 3.0186096618 3.1415926536 3.0186096618 
2.8992382033 2.7864913217 2.6824132222 0.45917943135 0.35510133185 0.2423544503 0.12298299178 0 0.12298299178 
0.2423544503 0.35510133185 0.45917943135 0.22715816343 0.49462574053 0.3129712797 0.77059342779 0.68021497688 0.49462574053 
1.0172219679 1.0172219679 1.0172219679 1.0172219679 1.2156949949 1.271087727 1.3676273807 1.5707963268 2.1243706857 
1.3676273807 1.447813335 1.5707963268 1.7739652728 2.1243706857 2.6469669131 1.4827341049 1.5707963268 1.6937793186 
1.8705049266 2.1243706857 2.4613776767 2.8286213739 1.5707963268 1.6588585487 1.7739652728 1.9258976586 2.1243706857 
2.3709992258 2.6469669131 2.9144344902 0.26576171152 0.33975332011 0.45685295248 0.40226393329 0.51573716537 0.6552068806 
0.45538277901 0.56421707518 0.69407236469 0.84594095064 0.50083690068 0.60464862014 0.72561863695 0.86392567495 1.0172219679 
0.54002084522 0.63877777351 0.75168694275 0.87851444325 1.0172219679 1.1636342747 0.57404952988 0.66790778838 0.77356233629 
0.89058134991 1.0172219679 1.1502619915 1.2852923014 0.60381225391 0.69302191562 0.79216440667 0.90072551443 1.0172219679 
1.139116835 1.2630228569 1.3852070904 0.71487100155 0.80816628637 0.80816628637 0.90937090954 0.90937090954 0.90937090954 
1.0172219679 1.0172219679 1.0172219679 1.0172219679 1.1296873865 1.1296873865 1.1296873865 1.1296873865 1.1296873865 
1.24411054 1.24411054 1.24411054 1.24411054 1.24411054 1.24411054 1.3575464161 1.3575464161 1.3575464161 
1.3575464161 1.3575464161 1.3575464161 1.3575464161 1.4671972081 1.4671972081 1.4671972081 1.4671972081 1.4671972081 
1.4671972081 1.4671972081 1.4671972081 1.6743954455 1.6743954455 1.7840462375 1.6743954455 1.7840462375 1.8974821136 
1.6743954455 1.7840462375 1.8974821136 2.0119052671 1.6743954455 1.7840462375 1.8974821136 2.0119052671 2.1243706857 
1.6743954455 1.7840462375 1.8974821136 2.0119052671 2.1243706857 2.232221744 1.6743954455 1.7840462375 1.8974821136 
2.0119052671 2.1243706857 2.232221744 2.3334263672 1.6743954455 1.7840462375 1.8974821136 2.0119052671 2.1243706857 
2.232221744 2.3334263672 2.426721652 1.7563855631 1.8785697967 1.8563003522 2.0024758186 1.9913306621 1.9779583789 
2.1243706857 2.1243706857 2.1243706857 2.1243706857 2.2408671392 2.2510113037 2.2630782103 2.2776669786 2.295651703 
2.3494282469 2.3680303173 2.3899057108 2.4159740166 2.4475202889 2.486385773 2.448570738 2.4736848652 2.5028148801 
2.5369440334 2.5773755784 2.6258554882 2.6847397011 2.5377803997 2.5675431237 2.6015718084 2.6407557529 2.6862098746 
2.7393287203 2.8018393335 2.8758309421 2.718901062 2.8307207459 2.7598010554 2.95115522 2.8800620952 2.8058000847 
3.0774230472 3.00855263 2.9351694502 2.8576792927 3.0774230472 3.1415926536 3.0719036933 2.9967168029 2.91630358 
2.95115522 3.00855263 3.0719036933 3.1415926536 3.0653475414 2.9825888767 2.8307207459 2.8800620952 2.9351694502 
2.9967168029 3.0653475414 3.1415926536 3.0574329311 2.718901062 2.7598010554 2.8058000847 2.8576792927 2.91630358 
2.9825888767 3.0574329311 3.1415926536 2.718901062 2.7598010554 2.8307207459 2.8058000847 2.8800620952 2.95115522 
2.8576792927 2.9351694502 3.00855263 3.0774230472 2.91630358 2.9967168029 3.0719036933 3.1415926536 3.0774230472 
2.9825888767 3.0653475414 3.1415926536 3.0719036933 3.00855263 2.95115522 3.0574329311 3.1415926536 3.0653475414 