# vtk DataFile Version 5.1
vtk output
ASCII
DATASET POLYDATA
POINTS 1002 float
-10.7545 -2.42818 -0.542162 -15.422 -20.6503 -1.01799 -7.39778 -4.17167 5.5233 
-12.6344 -20.2706 4.16296 -10.4591 -10.9395 -0.924124 -8.38151 -11.0676 2.34817 
-17.407 -9.93513 2.94702 -16.373 -11.5738 7.11521 -5.61463 -28.2533 -1.45739 
-0.762243 -0.0306283 0.0100261 -17.0329 -25.6908 2.75267 -11.1391 1.80987 4.37791 
-11.3858 -3.54157 -0.499333 -12.1221 -4.80505 -0.46778 -12.9546 -6.23147 -0.445628 
-13.7891 -8.00354 -0.359434 -14.4948 -10.2784 -0.201791 -15.0035 -12.8318 -0.121314 
-15.3294 -15.2311 -0.23115 -15.5131 -17.2969 -0.494466 -15.5543 -19.0879 -0.794612 
-10.4482 -2.77144 -0.787945 -10.1781 -3.18101 -1.07323 -9.93656 -3.68337 -1.37337 
-9.74724 -4.39061 -1.58313 -9.66266 -5.38488 -1.66722 -9.66374 -6.54729 -1.72292 
-9.71882 -7.68523 -1.73708 -9.88177 -8.76703 -1.57785 -10.1616 -9.85165 -1.25896 
-11.4921 -2.80018 -0.269691 -12.3004 -3.27076 0.0612652 -13.0997 -3.83747 0.465874 
-13.8795 -4.49306 0.890131 -14.6728 -5.26433 1.28819 -15.412 -6.16076 1.6777 
-16.0429 -7.11319 2.05398 -16.5945 -8.06377 2.38812 -17.0539 -9.01031 2.68424 
-9.918 -1.59435 -0.74248 -8.95302 -0.793078 -0.969869 -7.84518 -0.0522303 -1.16407 
-6.62611 0.609786 -1.26637 -5.28302 1.11299 -1.32054 -3.85145 1.35284 -1.34861 
-2.58115 1.31244 -1.23263 -1.67586 1.03086 -0.909771 -1.0968 0.554622 -0.46417 
-10.6051 -1.61105 -0.389725 -10.4924 -0.8416 -0.154344 -10.4339 -0.119914 0.156948 
-10.4351 0.560651 0.538287 -10.4716 1.11327 1.04243 -10.5422 1.52007 1.64895 
-10.6806 1.84502 2.27244 -10.8699 2.02766 2.94389 -11.0393 1.99736 3.6839 
-15.0607 -20.3655 -1.16301 -14.6677 -19.9689 -1.27104 -14.2194 -19.3723 -1.3438 
-13.7614 -18.5782 -1.38131 -13.3328 -17.6947 -1.33186 -12.8649 -16.6627 -1.15014 
-12.339 -15.2968 -0.91424 -11.8056 -13.6854 -0.767715 -11.2075 -12.1577 -0.781383 
-15.9056 -19.9348 -0.707578 -16.3646 -19.0291 -0.324691 -16.7639 -17.9031 0.0734732 
-17.0813 -16.6704 0.492404 -17.3333 -15.4559 0.944109 -17.4903 -14.2398 1.36474 
-17.5089 -13.0355 1.76237 -17.4577 -11.9266 2.19287 -17.4253 -10.9046 2.60634 
-14.8465 -21.9721 -1.23206 -13.9972 -23.3233 -1.38177 -12.9796 -24.6514 -1.60462 
-11.9417 -25.8932 -1.9418 -10.8729 -27.0017 -2.20472 -9.6101 -27.9494 -2.33034 
-8.14178 -28.6242 -2.44272 -6.78922 -28.8542 -2.43149 -5.92102 -28.6548 -2.08256 
-15.48 -21.7186 -0.985323 -15.4804 -22.7776 -0.872036 -15.4724 -23.7393 -0.676219 
-15.5667 -24.5347 -0.381794 -15.7726 -25.1147 0.0322659 -16.0268 -25.5003 0.50998 
-16.3552 -25.7952 1.00344 -16.7207 -25.9946 1.56092 -16.9667 -25.969 2.17723 
-8.0643 -5.23465 5.65551 -8.79376 -6.5152 5.82725 -9.57547 -8.03464 6.00149 
-10.4191 -9.68833 6.01665 -11.2486 -11.3918 5.83215 -11.9286 -13.2066 5.54567 
-12.386 -15.1291 5.19151 -12.6193 -17.0027 4.80857 -12.6777 -18.7204 4.46491 
-7.16473 -4.6211 5.26391 -6.97421 -5.19703 5.0098 -6.85673 -5.87937 4.73474 
-6.83438 -6.56062 4.36339 -6.89664 -7.22174 3.93113 -7.02509 -7.96744 3.57296 
-7.23539 -8.79831 3.28601 -7.5441 -9.61187 2.97871 -7.93574 -10.3633 2.65234 
-8.07152 -4.43176 5.86726 -8.77738 -4.78502 6.25461 -9.45022 -5.19107 6.68483 
-10.2337 -5.68348 7.02117 -11.3634 -6.36684 7.11795 -12.6767 -7.27332 7.06311 
-13.7924 -8.34769 7.04747 -14.705 -9.5118 7.09826 -15.5801 -10.6345 7.13681 
-6.61107 -3.44795 5.17165 -5.82446 -2.73616 4.6809 -5.00684 -2.03793 4.12303 
-4.09784 -1.39229 3.58961 -3.17704 -0.875603 3.04834 -2.36962 -0.526754 2.47512 
-1.67859 -0.296363 1.90141 -1.12568 -0.131545 1.28824 -0.808179 -0.0391912 0.627302 
-7.1852 -3.25848 5.5827 -7.05597 -2.23027 5.56041 -7.09822 -1.18688 5.46106 
-7.34221 -0.257203 5.39303 -7.70155 0.551205 5.35022 -8.17468 1.23766 5.22338 
-8.89891 1.7021 5.05833 -9.79882 1.90542 4.92127 -10.5896 1.91806 4.71869 
-12.3147 -19.8607 4.01485 -12.0151 -19.2866 3.83447 -11.7415 -18.5504 3.64382 
-11.4272 -17.6734 3.49934 -11.0509 -16.609 3.3893 -10.6987 -15.3507 3.23342 
-10.3121 -14.0708 3.03518 -9.74149 -12.9258 2.84448 -9.04531 -11.9269 2.63124 
-13.0197 -19.6709 4.49742 -13.439 -19.0063 4.87593 -13.8888 -18.2553 5.27742 
-14.3438 -17.4027 5.66933 -14.7555 -16.5322 6.08167 -15.147 -15.7497 6.52196 
-15.576 -14.9618 6.86783 -15.977 -13.9709 7.03774 -16.2429 -12.7797 7.09668 
-12.3102 -21.6112 3.75456 -11.827 -23.0904 3.27877 -11.0774 -24.6149 2.79719 
-10.0546 -26.0114 2.34524 -8.92877 -27.0948 1.82319 -7.84213 -27.8237 1.23621 
-6.83122 -28.2364 0.695033 -6.02646 -28.3686 0.0863271 -5.61041 -28.3377 -0.692738 
-12.7975 -21.3949 4.06092 -12.9996 -22.5006 3.96897 -13.2553 -23.5312 3.92253 
-13.5964 -24.4389 3.91463 -14.1127 -25.1579 3.89392 -14.8069 -25.6232 3.81639 
-15.5124 -25.8629 3.65728 -16.1198 -25.9525 3.40765 -16.6336 -25.902 3.09099 
-10.0733 -10.9493 -0.841521 -9.64178 -10.9322 -0.727269 -9.26765 -10.8767 -0.544582 
-8.9498 -10.8119 -0.280458 -8.62132 -10.8036 0.0490112 -8.37851 -10.8449 0.44678 
-8.31028 -10.8801 0.922212 -8.31383 -10.9233 1.44022 -8.32202 -10.9972 1.93182 
-11.1225 -12.9531 -0.606312 -11.3595 -15.4677 -0.596507 -11.0405 -18.1314 -0.891702 
-10.3153 -20.4775 -1.31802 -9.4193 -22.3351 -1.68993 -8.50267 -23.9396 -1.88799 
-7.6081 -25.4369 -1.94198 -6.7444 -26.6728 -1.92451 -6.02426 -27.5763 -1.78148 
-9.29415 -9.38932 -1.36047 -7.94034 -8.08516 -1.7491 -6.59808 -6.76769 -1.87522 
-5.27519 -5.40656 -1.80207 -3.99539 -4.23583 -1.69736 -2.89016 -3.25038 -1.5229 
-1.96693 -2.326 -1.20831 -1.23213 -1.48478 -0.822325 -0.816275 -0.72567 -0.418817 
-9.24331 -12.4796 2.22503 -9.96577 -14.574 2.0047 -10.2322 -17.3715 1.64991 
-9.8621 -20.2146 1.21879 -9.0104 -22.3812 0.797144 -8.03828 -23.98 0.369763 
-7.18728 -25.3686 -0.0800489 -6.46752 -26.5125 -0.529394 -5.8897 -27.4264 -0.993996 
-7.42234 -9.91 2.15489 -6.40943 -8.79609 1.87457 -5.37298 -7.6617 1.57413 
-4.29319 -6.55644 1.32138 -3.21005 -5.5317 1.11732 -2.23266 -4.50548 0.916571 
-1.41612 -3.40161 0.696816 -0.8325 -2.24639 0.461884 -0.614964 -1.09974 0.225401 
-17.5657 -9.90513 3.31031 -17.6848 -9.86834 3.75869 -17.792 -9.86836 4.34758 
-17.8585 -9.97598 5.00121 -17.7566 -10.1951 5.54717 -17.5035 -10.4549 5.98833 
-17.2836 -10.7313 6.43507 -17.1049 -11.0359 6.82366 -16.814 -11.3331 7.04146 
-17.777 -11.4876 2.97764 -18.2765 -13.083 2.94722 -18.8001 -14.6739 2.83617 
-19.101 -16.5333 2.64876 -19.1469 -18.8232 2.45442 -19.027 -21.0101 2.39033 
-18.6776 -22.554 2.49592 -18.1303 -23.6766 2.64353 -17.5625 -24.737 2.72545 
-17.159 -8.39299 3.11041 -16.7945 -6.85221 3.31062 -16.2825 -5.37076 3.55151 
-15.6985 -3.89518 3.76376 -15.1032 -2.48317 3.90766 -14.4347 -1.26252 4.02883 
-13.626 -0.244819 4.15138 -12.7496 0.592358 4.2572 -11.9204 1.26572 4.33714 
-16.9928 -13.103 7.00899 -17.4795 -14.6132 6.78519 -17.844 -16.1949 6.42835 
-18.1696 -17.8841 5.97886 -18.3703 -19.5401 5.48571 -18.2942 -21.0252 4.93 
-18.0091 -22.3247 4.32835 -17.6712 -23.5245 3.76755 -17.3475 -24.6787 3.25986 
-15.9871 -9.811 7.1301 -15.5778 -7.91216 7.11045 -15.125 -5.93932 7.10667 
-14.5711 -4.01448 7.14364 -13.9819 -2.39029 7.07377 -13.4321 -1.1739 6.73102 
-12.874 -0.231345 6.20353 -12.2831 0.554362 5.62853 -11.6975 1.22757 5.01203 
-5.69855 -29.0978 -1.42289 -6.46921 -29.6909 -1.20372 -7.98065 -29.8068 -0.731755 
-9.88498 -29.6733 -0.104877 -11.6374 -29.4775 0.499776 -13.0637 -28.9654 1.0407 
-14.3623 -28.194 1.54911 -15.539 -27.4676 2.01033 -16.4232 -26.685 2.41175 
-1.12184 1.01189 0.197748 -1.63821 1.97603 0.475638 -2.24819 2.70225 0.813845 
-3.19608 3.16463 1.18396 -4.69858 3.40529 1.67383 -6.43423 3.45147 2.34057 
-7.9527 3.32547 3.02595 -9.19202 2.98994 3.56747 -10.2455 2.44382 3.99228 
-11.1374 -3.97048 -0.745641 -10.9447 -4.48815 -1.02221 -11.957 -5.34414 -0.726656 
-10.7945 -5.18971 -1.267 -11.8617 -6.0675 -0.973439 -12.8879 -6.98716 -0.671615 
-10.7127 -6.12874 -1.40682 -11.8254 -7.03575 -1.14322 -12.8769 -8.01789 -0.830517 
-13.7722 -9.10868 -0.4902 -10.7292 -7.20155 -1.47381 -11.8677 -8.14506 -1.20968 
-12.9009 -9.25385 -0.9076 -13.7404 -10.4517 -0.564065 -14.4333 -11.6975 -0.30217 
-10.7866 -8.32504 -1.47673 -11.943 -9.33577 -1.18801 -12.9475 -10.6075 -0.918927 
-13.6741 -11.9201 -0.643369 -14.2876 -13.2032 -0.436981 -14.856 -14.3467 -0.334237 
-10.8729 -9.54969 -1.32555 -11.9389 -10.7175 -1.07086 -12.9038 -12.1466 -0.898044 
-13.5649 -13.5208 -0.778215 -14.0702 -14.7458 -0.678253 -14.611 -15.8315 -0.634552 
-15.1088 -16.6844 -0.595477 -11.0323 -10.8659 -1.04492 -11.8735 -12.2443 -0.897904 
-12.6741 -13.8022 -0.886284 -13.3104 -15.1857 -0.966399 -13.777 -16.2967 -1.01587 
-14.2544 -17.2684 -1.01169 -14.7603 -18.0805 -0.988257 -15.1894 -18.6668 -0.920465 
-9.54379 -1.93272 -1.0413 -8.46547 -1.16343 -1.28545 -9.18296 -2.36275 -1.37795 
-7.22737 -0.502874 -1.40587 -7.98284 -1.66541 -1.606 -8.8623 -2.89068 -1.69788 
-5.89219 0.0437589 -1.42095 -6.62836 -1.11434 -1.6398 -7.58646 -2.24872 -1.88472 
-8.66043 -3.66557 -1.85848 -4.46515 0.400154 -1.46464 -5.19011 -0.697368 -1.61644 
-6.12827 -1.78129 -1.87627 -7.36724 -3.10241 -1.97533 -8.59912 -4.83308 -1.8677 
-3.07693 0.46525 -1.46826 -3.76297 -0.510269 -1.65076 -4.62249 -1.53101 -1.85833 
-5.86244 -2.73889 -1.96136 -7.33353 -4.40689 -1.93175 -8.61367 -6.18385 -1.89023 
-1.98338 0.244461 -1.26052 -2.57601 -0.633105 -1.55509 -3.3611 -1.59024 -1.82353 
-4.45077 -2.66865 -1.9493 -5.9323 -4.11207 -1.93147 -7.43065 -5.84513 -1.94263 
-8.70933 -7.38411 -1.88822 -1.25281 -0.183998 -0.871633 -1.75449 -0.997159 -1.23655 
-2.51392 -1.90436 -1.58848 -3.47711 -2.89755 -1.82895 -4.75687 -4.06337 -1.89214 
-6.22985 -5.53742 -1.92669 -7.62897 -7.06188 -1.93481 -8.94501 -8.40963 -1.70367 
-0.83971 -1.85882 -0.243031 -1.23456 -3.06806 -0.0691363 -1.46177 -2.67493 -0.708923 
-1.93279 -4.26503 0.134058 -1.98716 -3.91732 -0.581423 -2.3706 -3.5594 -1.10252 
-2.83929 -5.37211 0.397338 -2.74791 -5.10122 -0.364974 -3.0003 -4.7751 -0.935988 
-3.45757 -4.48777 -1.35511 -3.8873 -6.44317 0.692577 -3.69241 -6.26118 -0.0493519 
-3.82245 -5.98835 -0.691195 -4.19854 -5.73511 -1.14524 -4.6775 -5.5357 -1.52455 
[...]
POINT_DATA 1002
FIELD FieldData 4
_paraPhi 1 1002 double
6.2831853072 3.1415926536 6.2831853072 3.1415926536 4.7123889804 4.7123889804 1.5707963268 1.5707963268 3.6951670125 
5.7296109483 2.5880182947 0.5535743589 6.2831853072 6.2831853072 6.2831853072 6.2831853072 3.1415926536 3.1415926536 
3.1415926536 3.1415926536 3.1415926536 6.1053039672 5.898798347 5.6768734901 5.4599499503 5.2659633393 5.1032165617 
4.9713148346 4.8656852733 4.7809517865 0.17788134 0.38438696014 0.60631181711 0.82323535693 1.0172219679 1.1799687454 
1.3118704726 1.4175000338 1.5022335207 6.1892828907 6.1070320098 6.035312792 5.9728339911 5.9183214791 5.8706119594 
5.8286879411 5.7916808611 5.7588591896 0.093902416448 0.17615329733 0.2478725152 0.31035131605 0.36486382811 0.41257334776 
0.45449736604 0.4915044461 0.52432611754 3.3194739936 3.5259796137 3.7479044707 3.9648280105 4.1588146215 4.321561399 
4.4534631262 4.5590926874 4.6438261743 2.9637113136 2.7572056934 2.5352808365 2.3183572967 2.1243706857 1.9616239082 
1.829722181 1.7240926197 1.6393591329 3.23549507 3.3177459509 3.3894651688 3.4519439696 3.5064564817 3.5541660013 
3.5960900196 3.6330970997 3.6659187711 3.0476902371 2.9654393563 2.8937201384 2.8312413375 2.7767288255 2.7290193058 
2.6870952876 2.6500882075 2.617266536 6.2831853072 6.2831853072 6.2831853072 6.2831853072 3.1415926536 3.1415926536 
3.1415926536 3.1415926536 3.1415926536 6.1053039672 5.898798347 5.6768734901 5.4599499503 5.2659633393 5.1032165617 
4.9713148346 4.8656852733 4.7809517865 0.17788134 0.38438696014 0.60631181711 0.82323535693 1.0172219679 1.1799687454 
1.3118704726 1.4175000338 1.5022335207 6.1892828907 6.1070320098 6.035312792 5.9728339911 5.9183214791 5.8706119594 
5.8286879411 5.7916808611 5.7588591896 0.093902416448 0.17615329733 0.2478725152 0.31035131605 0.36486382811 0.41257334776 
0.45449736604 0.4915044461 0.52432611754 3.3194739936 3.5259796137 3.7479044707 3.9648280105 4.1588146215 4.321561399 
4.4534631262 4.5590926874 4.6438261743 2.9637113136 2.7572056934 2.5352808365 2.3183572967 2.1243706857 1.9616239082 
1.829722181 1.7240926197 1.6393591329 3.23549507 3.3177459509 3.3894651688 3.4519439696 3.5064564817 3.5541660013 
3.5960900196 3.6330970997 3.6659187711 3.0476902371 2.9654393563 2.8937201384 2.8312413375 2.7767288255 2.7290193058 
2.6870952876 2.6500882075 2.617266536 4.7123889804 4.7123889804 4.7123889804 4.7123889804 4.7123889804 4.7123889804 
4.7123889804 4.7123889804 4.7123889804 4.6087898617 4.4991390697 4.3857031936 4.2712800401 4.1588146215 4.0509635631 
3.94975894 3.8564636551 3.7716124825 4.8159880991 4.9256388911 5.0390747672 5.1534979207 5.2659633393 5.3738143976 
5.4750190208 5.5683143056 5.6531654782 4.6087898617 4.4991390697 4.3857031936 4.2712800401 4.1588146215 4.0509635631 
3.94975894 3.8564636551 3.7716124825 4.8159880991 4.9256388911 5.0390747672 5.1534979207 5.2659633393 5.3738143976 
5.4750190208 5.5683143056 5.6531654782 1.5707963268 1.5707963268 1.5707963268 1.5707963268 1.5707963268 1.5707963268 
1.5707963268 1.5707963268 1.5707963268 1.6743954455 1.7840462375 1.8974821136 2.0119052671 2.1243706857 2.232221744 
2.3334263672 2.426721652 2.5115728246 1.4671972081 1.3575464161 1.24411054 1.1296873865 1.0172219679 0.90937090954 
0.80816628637 0.71487100155 0.63001982895 1.6743954455 1.7840462375 1.8974821136 2.0119052671 2.1243706857 2.232221744 
2.3334263672 2.426721652 2.5115728246 1.4671972081 1.3575464161 1.24411054 1.1296873865 1.0172219679 0.90937090954 
0.80816628637 0.71487100155 0.63001982895 3.6007720849 3.4966939854 3.3839471039 3.2645756454 3.1415926536 3.0186096618 
2.8992382033 2.7864913217 2.6824132222 5.8240058758 5.9280839753 6.0408308569 6.1602023154 6.2831853072 0.12298299178 
0.2423544503 0.35510133185 0.45917943135 6.0560271438 5.7885595667 5.9702140275 5.5125918794 5.6029703303 5.7885595667 
5.2659633393 5.2659633393 5.2659633393 5.2659633393 5.0674903122 5.0120975802 4.9155579264 4.7123889804 4.1588146215 
4.9155579264 4.8353719722 4.7123889804 4.5092200343 4.1588146215 3.6362183941 4.8004512023 4.7123889804 4.5894059886 
4.4126803806 4.1588146215 3.8218076305 3.4545639333 4.7123889804 4.6243267584 4.5092200343 4.3572876485 4.1588146215 
3.9121860814 3.6362183941 3.368750817 6.0174235957 5.9434319871 5.8263323547 5.8809213739 5.7674481418 5.6279784266 
5.8278025282 5.718968232 5.5891129425 5.4372443565 5.7823484065 5.678536687 5.5575666702 5.4192596322 5.2659633393 
5.743164462 5.6444075337 5.5314983644 5.4046708639 5.2659633393 5.1195510325 5.7091357773 5.6152775188 5.5096229709 
5.3926039573 5.2659633393 5.1329233157 4.9978930058 5.6793730533 5.5901633916 5.4910209005 5.3824597928 5.2659633393 
5.1440684722 5.0201624502 4.8979782167 5.5683143056 5.4750190208 5.4750190208 5.3738143976 5.3738143976 5.3738143976 
5.2659633393 5.2659633393 5.2659633393 5.2659633393 5.1534979207 5.1534979207 5.1534979207 5.1534979207 5.1534979207 
5.0390747672 5.0390747672 5.0390747672 5.0390747672 5.0390747672 5.0390747672 4.9256388911 4.9256388911 4.9256388911 
4.9256388911 4.9256388911 4.9256388911 4.9256388911 4.8159880991 4.8159880991 4.8159880991 4.8159880991 4.8159880991 
4.8159880991 4.8159880991 4.8159880991 4.6087898617 4.6087898617 4.4991390697 4.6087898617 4.4991390697 4.3857031936 
4.6087898617 4.4991390697 4.3857031936 4.2712800401 4.6087898617 4.4991390697 4.3857031936 4.2712800401 4.1588146215 
4.6087898617 4.4991390697 4.3857031936 4.2712800401 4.1588146215 4.0509635631 4.6087898617 4.4991390697 4.3857031936 
4.2712800401 4.1588146215 4.0509635631 3.94975894 4.6087898617 4.4991390697 4.3857031936 4.2712800401 4.1588146215 
4.0509635631 3.94975894 3.8564636551 4.526799744 4.4046155105 4.426884955 4.2807094886 4.2918546451 4.3052269283 
4.1588146215 4.1588146215 4.1588146215 4.1588146215 4.042318168 4.0321740035 4.0201070968 4.0055183285 3.9875336042 
3.9337570603 3.9151549899 3.8932795963 3.8672112905 3.8356650183 3.7967995342 3.8346145692 3.809500442 3.7803704271 
3.7462412737 3.7058097288 3.657329819 3.5984456061 3.7454049075 3.7156421835 3.6816134988 3.6424295543 3.5969754326 
3.5438565869 3.4813459737 3.4073543651 3.5642842451 3.4524645613 3.5233842518 3.3320300872 3.403123212 3.4773852225 
3.20576226 3.2746326772 3.348015857 3.4255060145 3.0774230472 3.1415926536 3.2112816139 3.2864685043 3.3668817272 
2.95115522 3.00855263 3.0719036933 3.1415926536 3.2178377658 3.3005964304 2.8307207459 2.8800620952 2.9351694502 
2.9967168029 3.0653475414 3.1415926536 3.225752376 2.718901062 2.7598010554 2.8058000847 2.8576792927 2.91630358 
2.9825888767 3.0574329311 3.1415926536 3.5642842451 3.5233842518 3.4524645613 3.4773852225 3.403123212 3.3320300872 
3.4255060145 3.348015857 3.2746326772 3.20576226 3.3668817272 3.2864685043 3.2112816139 3.1415926536 3.0774230472 
3.3005964304 3.2178377658 3.1415926536 3.0719036933 3.00855263 2.95115522 3.225752376 3.1415926536 3.0653475414 
2.9967168029 2.9351694502 2.8800620952 2.8307207459 3.1415926536 3.0574329311 2.9825888767 2.91630358 2.8576792927 
2.8058000847 2.7598010554 2.718901062 4.526799744 4.426884955 4.4046155105 4.3052269283 4.2918546451 4.2807094886 
4.1588146215 4.1588146215 4.1588146215 4.1588146215 3.9875336042 4.0055183285 4.0201070968 4.0321740035 4.042318168 
3.7967995342 3.8356650183 3.8672112905 3.8932795963 3.9151549899 3.9337570603 3.5984456061 3.657329819 3.7058097288 
3.7462412737 3.7803704271 3.809500442 3.8346145692 3.4073543651 3.4813459737 3.5438565869 3.5969754326 3.6424295543 
3.6816134988 3.7156421835 3.7454049075 4.7123889804 4.8004512023 4.6243267584 4.9155579264 4.7123889804 4.5092200343 
5.0674903122 4.8353719722 4.5894059886 4.3572876485 5.2659633393 5.0120975802 4.7123889804 4.4126803806 4.1588146215 
5.5125918794 5.2659633393 4.9155579264 4.5092200343 4.1588146215 3.9121860814 5.7885595667 5.6029703303 5.2659633393 
4.7123889804 4.1588146215 3.8218076305 3.6362183941 6.0560271438 5.9702140275 5.7885595667 5.2659633393 4.1588146215 
3.6362183941 3.4545639333 3.368750817 0.22715816343 0.49462574053 0.3129712797 0.77059342779 0.68021497688 0.49462574053 
1.0172219679 1.0172219679 1.0172219679 1.0172219679 1.2156949949 1.271087727 1.3676273807 1.5707963268 2.1243706857 
1.3676273807 1.447813335 1.5707963268 1.7739652728 2.1243706857 2.6469669131 1.4827341049 1.5707963268 1.6937793186 
1.8705049266 2.1243706857 2.4613776767 2.8286213739 1.5707963268 1.6588585487 1.7739652728 1.9258976586 2.1243706857 
2.3709992258 2.6469669131 2.9144344902 1.7563855631 1.8785697967 1.8563003522 2.0024758186 1.9913306621 1.9779583789 
2.1243706857 2.1243706857 2.1243706857 2.1243706857 2.2408671392 2.2510113037 2.2630782103 2.2776669786 2.295651703 
2.3494282469 2.3680303173 2.3899057108 2.4159740166 2.4475202889 2.486385773 2.448570738 2.4736848652 2.5028148801 
2.5369440334 2.5773755784 2.6258554882 2.6847397011 2.5377803997 2.5675431237 2.6015718084 2.6407557529 2.6862098746 
2.7393287203 2.8018393335 2.8758309421 1.6743954455 1.6743954455 1.7840462375 1.6743954455 1.7840462375 1.8974821136 
1.6743954455 1.7840462375 1.8974821136 2.0119052671 1.6743954455 1.7840462375 1.8974821136 2.0119052671 2.1243706857 
1.6743954455 1.7840462375 1.8974821136 2.0119052671 2.1243706857 2.232221744 1.6743954455 1.7840462375 1.8974821136 
2.0119052671 2.1243706857 2.232221744 2.3334263672 1.6743954455 1.7840462375 1.8974821136 2.0119052671 2.1243706857 
2.232221744 2.3334263672 2.426721652 1.4671972081 1.3575464161 1.4671972081 1.24411054 1.3575464161 1.4671972081 
1.1296873865 1.24411054 1.3575464161 1.4671972081 1.0172219679 1.1296873865 1.24411054 1.3575464161 1.4671972081 
0.90937090954 1.0172219679 1.1296873865 1.24411054 1.3575464161 1.4671972081 0.80816628637 0.90937090954 1.0172219679 
1.1296873865 1.24411054 1.3575464161 1.4671972081 0.71487100155 0.80816628637 0.90937090954 1.0172219679 1.1296873865 
1.24411054 1.3575464161 1.4671972081 0.60381225391 0.57404952988 0.69302191562 0.54002084522 0.66790778838 0.79216440667 
0.50083690068 0.63877777351 0.77356233629 0.90072551443 0.45538277901 0.60464862014 0.75168694275 0.89058134991 1.0172219679 
0.40226393329 0.56421707518 0.72561863695 0.87851444325 1.0172219679 1.139116835 0.33975332011 0.51573716537 0.69407236469 
0.86392567495 1.0172219679 1.1502619915 1.2630228569 0.26576171152 0.45685295248 0.6552068806 0.84594095064 1.0172219679 
1.1636342747 1.2852923014 1.3852070904 0.22715816343 0.3129712797 0.49462574053 0.49462574053 0.68021497688 0.77059342779 
1.0172219679 1.0172219679 1.0172219679 1.0172219679 2.1243706857 1.5707963268 1.3676273807 1.271087727 1.2156949949 
2.6469669131 2.1243706857 1.7739652728 1.5707963268 1.447813335 1.3676273807 2.8286213739 2.4613776767 2.1243706857 
1.8705049266 1.6937793186 1.5707963268 1.4827341049 2.9144344902 2.6469669131 2.3709992258 2.1243706857 1.9258976586 
1.7739652728 1.6588585487 1.5707963268 1.7563855631 1.8563003522 1.8785697967 1.9779583789 1.9913306621 2.0024758186 
2.1243706857 2.1243706857 2.1243706857 2.1243706857 2.295651703 2.2776669786 2.2630782103 2.2510113037 2.2408671392 
2.486385773 2.4475202889 2.4159740166 2.3899057108 2.3680303173 2.3494282469 2.6847397011 2.6258554882 2.5773755784 
2.5369440334 2.5028148801 2.4736848652 2.448570738 2.8758309421 2.8018393335 2.7393287203 2.6862098746 2.6407557529 
2.6015718084 2.5675431237 2.5377803997 5.8604937156 5.901393709 5.9723133995 5.9473927383 6.0216547488 6.0927478736 
5.9992719463 6.0767621038 6.1501452836 6.2190157008 6.0578962336 6.1383094565 6.2134963469 0 0.064169606361 
6.1241815303 6.206940195 6.2831853072 0.069688960264 0.13304002361 0.19043743361 6.1990255847 0 0.07624511221 
0.14487585072 0.20642320337 0.26153055843 0.3108719077 0 0.084159722458 0.15900377685 0.22528907359 0.28391336087 
0.3357925689 0.38179159818 0.42269159155 5.8604937156 5.9723133995 5.901393709 6.0927478736 6.0216547488 5.9473927383 
6.2190157008 6.1501452836 6.0767621038 5.9992719463 0.064169606361 0 6.2134963469 6.1383094565 6.0578962336 
0.19043743361 0.13304002361 0.069688960264 6.2831853072 6.206940195 6.1241815303 0.3108719077 0.26153055843 0.20642320337 
0.14487585072 0.07624511221 6.2831853072 6.1990255847 0.42269159155 0.38179159818 0.3357925689 0.28391336087 0.22528907359 
0.15900377685 0.084159722458 0 5.6793730533 5.7091357773 5.5901633916 5.743164462 5.6152775188 5.4910209005 
5.7823484065 5.6444075337 5.5096229709 5.3824597928 5.8278025282 5.678536687 5.5314983644 5.3926039573 5.2659633393 
5.8809213739 5.718968232 5.5575666702 5.4046708639 5.2659633393 5.1440684722 5.9434319871 5.7674481418 5.5891129425 
5.4192596322 5.2659633393 5.1329233157 5.0201624502 6.0174235957 5.8263323547 5.6279784266 5.4372443565 5.2659633393 
5.1195510325 4.9978930058 4.8979782167 1.3852070904 1.2852923014 1.2630228569 1.1636342747 1.1502619915 1.139116835 
1.0172219679 1.0172219679 1.0172219679 1.0172219679 0.84594095064 0.86392567495 0.87851444325 0.89058134991 0.90072551443 
0.6552068806 0.69407236469 0.72561863695 0.75168694275 0.77356233629 0.79216440667 0.45685295248 0.51573716537 0.56421707518 
0.60464862014 0.63877777351 0.66790778838 0.69302191562 0.26576171152 0.33975332011 0.40226393329 0.45538277901 0.50083690068 
0.54002084522 0.57404952988 0.60381225391 
_paraPhiHalf 1 1002 double
0 3.1415926536 0 3.1415926536 1.5707963268 1.5707963268 1.5707963268 1.5707963268 2.5880182947 
0.5535743589 2.5880182947 0.5535743589 0 0 0 0 3.1415926536 3.1415926536 
3.1415926536 3.1415926536 3.1415926536 0.17788134 0.38438696014 0.60631181711 0.82323535693 1.0172219679 1.1799687454 
1.3118704726 1.4175000338 1.5022335207 0.17788134 0.38438696014 0.60631181711 0.82323535693 1.0172219679 1.1799687454 
1.3118704726 1.4175000338 1.5022335207 0.093902416448 0.17615329733 0.2478725152 0.31035131605 0.36486382811 0.41257334776 
0.45449736604 0.4915044461 0.52432611754 0.093902416448 0.17615329733 0.2478725152 0.31035131605 0.36486382811 0.41257334776 
0.45449736604 0.4915044461 0.52432611754 2.9637113136 2.7572056934 2.5352808365 2.3183572967 2.1243706857 1.9616239082 
1.829722181 1.7240926197 1.6393591329 2.9637113136 2.7572056934 2.5352808365 2.3183572967 2.1243706857 1.9616239082 
1.829722181 1.7240926197 1.6393591329 3.0476902371 2.9654393563 2.8937201384 2.8312413375 2.7767288255 2.7290193058 
2.6870952876 2.6500882075 2.617266536 3.0476902371 2.9654393563 2.8937201384 2.8312413375 2.7767288255 2.7290193058 
2.6870952876 2.6500882075 2.617266536 0 0 0 0 3.1415926536 3.1415926536 
3.1415926536 3.1415926536 3.1415926536 0.17788134 0.38438696014 0.60631181711 0.82323535693 1.0172219679 1.1799687454 
1.3118704726 1.4175000338 1.5022335207 0.17788134 0.38438696014 0.60631181711 0.82323535693 1.0172219679 1.1799687454 
1.3118704726 1.4175000338 1.5022335207 0.093902416448 0.17615329733 0.2478725152 0.31035131605 0.36486382811 0.41257334776 
0.45449736604 0.4915044461 0.52432611754 0.093902416448 0.17615329733 0.2478725152 0.31035131605 0.36486382811 0.41257334776 
0.45449736604 0.4915044461 0.52432611754 2.9637113136 2.7572056934 2.5352808365 2.3183572967 2.1243706857 1.9616239082 
1.829722181 1.7240926197 1.6393591329 2.9637113136 2.7572056934 2.5352808365 2.3183572967 2.1243706857 1.9616239082 
1.829722181 1.7240926197 1.6393591329 3.0476902371 2.9654393563 2.8937201384 2.8312413375 2.7767288255 2.7290193058 
2.6870952876 2.6500882075 2.617266536 3.0476902371 2.9654393563 2.8937201384 2.8312413375 2.7767288255 2.7290193058 
2.6870952876 2.6500882075 2.617266536 1.5707963268 1.5707963268 1.5707963268 1.5707963268 1.5707963268 1.5707963268 
1.5707963268 1.5707963268 1.5707963268 1.6743954455 1.7840462375 1.8974821136 2.0119052671 2.1243706857 2.232221744 
2.3334263672 2.426721652 2.5115728246 1.4671972081 1.3575464161 1.24411054 1.1296873865 1.0172219679 0.90937090954 
0.80816628637 0.71487100155 0.63001982895 1.6743954455 1.7840462375 1.8974821136 2.0119052671 2.1243706857 2.232221744 
2.3334263672 2.426721652 2.5115728246 1.4671972081 1.3575464161 1.24411054 1.1296873865 1.0172219679 0.90937090954 
0.80816628637 0.71487100155 0.63001982895 1.5707963268 1.5707963268 1.5707963268 1.5707963268 1.5707963268 1.5707963268 
1.5707963268 1.5707963268 1.5707963268 1.6743954455 1.7840462375 1.8974821136 2.0119052671 2.1243706857 2.232221744 
2.3334263672 2.426721652 2.5115728246 1.4671972081 1.3575464161 1.24411054 1.1296873865 1.0172219679 0.90937090954 
0.80816628637 0.71487100155 0.63001982895 1.6743954455 1.7840462375 1.8974821136 2.0119052671 2.1243706857 2.232221744 
2.3334263672 2.426721652 2.5115728246 1.4671972081 1.3575464161 1.24411054 1.1296873865 1.0172219679 0.90937090954 
0.80816628637 0.71487100155 0.63001982895 2.6824132222 2.7864913217 2.8992382033 3.0186096618 3.1415926536 3.0186096618 
2.8992382033 2.7864913217 2.6824132222 0.45917943135 0.35510133185 0.2423544503 0.12298299178 0 0.12298299178 
0.2423544503 0.35510133185 0.45917943135 0.22715816343 0.49462574053 0.3129712797 0.77059342779 0.68021497688 0.49462574053 
1.0172219679 1.0172219679 1.0172219679 1.0172219679 1.2156949949 1.271087727 1.3676273807 1.5707963268 2.1243706857 
1.3676273807 1.447813335 1.5707963268 1.7739652728 2.1243706857 2.6469669131 1.4827341049 1.5707963268 1.6937793186 
1.8705049266 2.1243706857 2.4613776767 2.8286213739 1.5707963268 1.6588585487 1.7739652728 1.9258976586 2.1243706857 
2.3709992258 2.6469669131 2.9144344902 0.26576171152 0.33975332011 0.45685295248 0.40226393329 0.51573716537 0.6552068806 
0.45538277901 0.56421707518 0.69407236469 0.84594095064 0.50083690068 0.60464862014 0.72561863695 0.86392567495 1.0172219679 
0.54002084522 0.63877777351 0.75168694275 0.87851444325 1.0172219679 1.1636342747 0.57404952988 0.66790778838 0.77356233629 
0.89058134991 1.0172219679 1.1502619915 1.2852923014 0.60381225391 0.69302191562 0.79216440667 0.90072551443 1.0172219679 
1.139116835 1.2630228569 1.3852070904 0.71487100155 0.80816628637 0.80816628637 0.90937090954 0.90937090954 0.90937090954 
1.0172219679 1.0172219679 1.0172219679 1.0172219679 1.1296873865 1.1296873865 1.1296873865 1.1296873865 1.1296873865 
1.24411054 1.24411054 1.24411054 1.24411054 1.24411054 1.24411054 1.3575464161 1.3575464161 1.3575464161 
1.3575464161 1.3575464161 1.3575464161 1.3575464161 1.4671972081 1.4671972081 1.4671972081 1.4671972081 1.4671972081 
1.4671972081 1.4671972081 1.4671972081 1.6743954455 1.6743954455 1.7840462375 1.6743954455 1.7840462375 1.8974821136 
1.6743954455 1.7840462375 1.8974821136 2.0119052671 1.6743954455 1.7840462375 1.8974821136 2.0119052671 2.1243706857 
1.6743954455 1.7840462375 1.8974821136 2.0119052671 2.1243706857 2.232221744 1.6743954455 1.7840462375 1.8974821136 
2.0119052671 2.1243706857 2.232221744 2.3334263672 1.6743954455 1.7840462375 1.8974821136 2.0119052671 2.1243706857 
2.232221744 2.3334263672 2.426721652 1.7563855631 1.8785697967 1.8563003522 2.0024758186 1.9913306621 1.9779583789 
2.1243706857 2.1243706857 2.1243706857 2.1243706857 2.2408671392 2.2510113037 2.2630782103 2.2776669786 2.295651703 
2.3494282469 2.3680303173 2.3899057108 2.4159740166 2.4475202889 2.486385773 2.448570738 2.4736848652 2.5028148801 
2.5369440334 2.5773755784 2.6258554882 2.6847397011 2.5377803997 2.5675431237 2.6015718084 2.6407557529 2.6862098746 
2.7393287203 2.8018393335 2.8758309421 2.718901062 2.8307207459 2.7598010554 2.95115522 2.8800620952 2.8058000847 
3.0774230472 3.00855263 2.9351694502 2.8576792927 3.0774230472 3.1415926536 3.0719036933 2.9967168029 2.91630358 
2.95115522 3.00855263 3.0719036933 3.1415926536 3.0653475414 2.9825888767 2.8307207459 2.8800620952 2.9351694502 
2.9967168029 3.0653475414 3.1415926536 3.0574329311 2.718901062 2.7598010554 2.8058000847 2.8576792927 2.91630358 
2.9825888767 3.0574329311 3.1415926536 2.718901062 2.7598010554 2.8307207459 2.8058000847 2.8800620952 2.95115522 
2.8576792927 2.9351694502 3.00855263 3.0774230472 2.91630358 2.9967168029 3.0719036933 3.1415926536 3.0774230472 
2.9825888767 3.0653475414 3.1415926536 3.0719036933 3.00855263 2.95115522 3.0574329311 3.1415926536 3.0653475414 