# vtk DataFile Version 5.1
vtk output
ASCII
DATASET POLYDATA
POINTS 1002 float
-8.61395 -0.303895 -3.43862 8.93659 -0.69482 -3.24308 -7.88485 0.38362 3.4916 
7.79866 -0.717701 2.36404 -1.02757 2.01116 -2.40233 -1.34925 2.38486 1.40205 
-0.527756 -6.05488 -2.12169 0.340375 -6.74948 2.30264 14.1832 9.2192 1.15761 
-13.2991 7.44763 0.977445 14.1468 -2.64978 0.010295 -12.838 -3.46174 -0.00914796 
-7.47759 -0.619784 -3.50892 -6.11826 -0.989715 -3.59696 -4.52336 -1.36317 -3.65143 
-2.67254 -1.69831 -3.61489 -0.568775 -1.94779 -3.56845 1.68559 -2.03294 -3.60279 
3.90254 -1.91879 -3.59712 5.9001 -1.62643 -3.47235 7.57882 -1.1973 -3.33956 
-8.39607 0.163436 -3.49695 -8.04879 0.660813 -3.51543 -7.57353 1.19334 -3.47042 
-7.02409 1.71399 -3.44159 -6.36553 2.10576 -3.48049 -5.45905 2.31024 -3.44591 
-4.3235 2.39313 -3.23044 -3.16178 2.38484 -2.93309 -2.08053 2.24521 -2.65638 
-8.09631 -0.961001 -3.41136 -7.4699 -1.67347 -3.35416 -6.72708 -2.40469 -3.23591 
-5.90744 -3.10982 -3.10506 -5.03033 -3.78694 -3.00809 -4.06821 -4.39602 -2.85003 
-3.07989 -4.87811 -2.59446 -2.16505 -5.29153 -2.37002 -1.32511 -5.69858 -2.23272 
-9.56652 0.299948 -3.41048 -10.5427 1.01493 -3.33843 -11.5028 1.87943 -3.1565 
-12.4149 2.90343 -2.80762 -13.2144 4.05437 -2.31054 -13.774 5.19749 -1.75781 
-14.0144 6.12657 -1.16238 -13.9691 6.7661 -0.459683 -13.7079 7.18937 0.30114 
-9.35856 -0.445381 -3.36284 -10.1322 -0.64806 -3.2879 -10.9061 -0.895368 -3.16125 
-11.5669 -1.19825 -2.90653 -12.1138 -1.57762 -2.57614 -12.5916 -2.03001 -2.25154 
-12.8921 -2.52326 -1.82796 -12.9782 -2.97046 -1.22641 -12.9483 -3.28364 -0.574911 
8.66059 -0.305002 -3.25666 8.27358 0.084404 -3.26603 7.73031 0.444872 -3.20886 
6.99029 0.764778 -3.09705 6.0943 1.015 -2.99123 5.06706 1.10171 -2.82816 
3.76842 1.04914 -2.58677 2.1389 1.09968 -2.42845 0.430916 1.43639 -2.40929 
8.32358 -1.40616 -3.30011 7.51349 -2.13489 -3.34108 6.54544 -2.86772 -3.37011 
5.49608 -3.55338 -3.37365 4.39957 -4.16578 -3.30187 3.27641 -4.7006 -3.15519 
2.19843 -5.11851 -2.9444 1.21784 -5.44328 -2.65073 0.316234 -5.75388 -2.34467 
9.98657 0.16343 -3.0854 10.9934 1.23825 -2.75137 11.9541 2.48901 -2.27971 
12.8395 3.80422 -1.85264 13.6423 5.0854 -1.52917 14.3223 6.35069 -1.2252 
14.7104 7.61461 -0.873946 14.719 8.66789 -0.3592 14.4868 9.22071 0.374308 
9.83678 -0.623634 -3.16766 10.7278 -0.579686 -3.03627 11.5586 -0.544398 -2.78164 
12.3363 -0.538208 -2.41176 13.0624 -0.636462 -2.01427 13.621 -0.865332 -1.6282 
13.9873 -1.22433 -1.25291 14.2453 -1.7044 -0.874963 14.3324 -2.21429 -0.451294 
-6.76008 -0.0270996 3.57386 -5.48733 -0.463992 3.70331 -4.04494 -0.899461 3.7504 
-2.40916 -1.2915 3.62662 -0.612473 -1.64356 3.36148 1.24766 -1.89789 2.95893 
3.07341 -1.8914 2.5294 4.80545 -1.59999 2.30802 6.39645 -1.17035 2.30943 
-7.51861 0.805457 3.49769 -7.05659 1.22489 3.46897 -6.50106 1.61159 3.379 
-5.87663 1.96733 3.27639 -5.19001 2.2669 3.11484 -4.45829 2.45401 2.8124 
-3.70507 2.53463 2.45618 -2.92277 2.55755 2.13288 -2.12308 2.51639 1.79475 
-7.53497 -0.277012 3.57604 -7.13225 -0.935891 3.79057 -6.61332 -1.64373 3.96085 
-5.83798 -2.503 3.83207 -4.77286 -3.487 3.52503 -3.56908 -4.42929 3.31826 
-2.38277 -5.22892 3.16283 -1.30599 -5.88797 2.92244 -0.400314 -6.39947 2.61947 
-8.75294 1.08967 3.45923 -9.60165 1.88635 3.38581 -10.3775 2.7258 3.20696 
-11.14 3.60167 3.0121 -11.8769 4.50312 2.85156 -12.4221 5.35389 2.59956 
-12.7876 6.12155 2.25011 -13.0992 6.7881 1.90219 -13.2974 7.2509 1.50139 
-8.77602 0.369423 3.47517 -9.74621 0.311591 3.40902 -10.7506 0.140298 3.18647 
-11.6532 -0.189513 2.82791 -12.3596 -0.632258 2.42076 -12.9035 -1.14009 1.96962 
-13.2605 -1.74383 1.48083 -13.3314 -2.42125 0.991093 -13.1456 -3.03246 0.494582 
7.32585 -0.458605 2.25861 6.73487 -0.255512 2.08806 5.97897 -0.0806206 1.93274 
5.0501 0.0853656 1.82472 3.98698 0.248758 1.71191 2.80925 0.450284 1.5848 
1.58891 0.77211 1.52545 0.460636 1.25061 1.53802 -0.514742 1.81819 1.51403 
7.38689 -1.32429 2.36675 6.88055 -1.99983 2.33682 6.27989 -2.69493 2.36221 
5.64455 -3.36882 2.48709 4.94301 -4.04411 2.59801 4.07657 -4.72508 2.58078 
3.1212 -5.35312 2.49239 2.20567 -5.89727 2.42563 1.29747 -6.36461 2.37691 
8.87914 -0.0202593 2.3603 10.0302 0.830251 2.36898 11.1712 1.86438 2.48151 
12.2043 3.09982 2.68426 13.1251 4.44236 2.8116 13.88 5.7313 2.80708 
14.2907 6.9238 2.71402 14.3691 8.0024 2.43468 14.3064 8.8162 1.87741 
8.86624 -0.643168 2.38687 9.90652 -0.607504 2.37366 10.8954 -0.615835 2.41491 
11.8413 -0.758367 2.46218 12.6702 -1.10785 2.31768 13.2618 -1.54927 1.95903 
13.6656 -1.92456 1.54275 13.9881 -2.2227 1.09885 14.1772 -2.47121 0.57587 
-1.14276 2.23319 -2.18124 -1.21771 2.44394 -1.8789 -1.26952 2.69835 -1.5516 
-1.30626 2.94129 -1.23143 -1.30951 3.06196 -0.840066 -1.31493 3.04344 -0.363673 
-1.35263 2.9372 0.105468 -1.37667 2.78439 0.557693 -1.36531 2.60131 1.00895 
1.15789 1.57214 -2.14896 3.82442 1.82746 -1.88272 6.25228 2.89491 -1.65579 
7.92888 4.31252 -1.40814 9.2262 5.56411 -1.04714 10.5325 6.6161 -0.630219 
11.6922 7.60448 -0.238088 12.6519 8.47632 0.184167 13.5005 9.06286 0.672048 
-2.7761 2.99987 -2.44867 -4.23745 4.0825 -2.32566 -5.69911 4.88113 -2.05585 
-7.22432 5.48876 -1.67906 -8.60778 6.19078 -1.21191 -9.8219 6.87813 -0.757445 
-10.9057 7.33778 -0.363406 -11.8289 7.58533 0.0787463 -12.624 7.63434 0.572228 
0.040403 1.86795 1.05034 1.8893 1.54463 0.719416 4.31702 1.81716 0.594151 
6.96446 2.85532 0.788866 9.05341 4.32905 1.16473 10.3557 5.76527 1.48216 
11.4013 6.97675 1.65987 12.4808 7.99919 1.6935 13.436 8.80118 1.52787 
-2.58197 3.09782 1.50771 -3.82088 3.90263 1.62991 -5.08755 4.7645 1.76371 
-6.37764 5.59389 1.8348 -7.6514 6.31756 1.83421 -8.90264 6.95991 1.81362 
-10.1453 7.48961 1.74803 -11.3313 7.7662 1.59175 -12.3921 7.72696 1.33405 
-0.55849 -6.40682 -1.92063 -0.612496 -6.71797 -1.62269 -0.676601 -7.02103 -1.14887 
-0.687401 -7.32059 -0.526978 -0.618712 -7.4964 0.0887946 -0.531687 -7.49064 0.610926 
-0.416071 -7.41131 1.10478 -0.191011 -7.30179 1.59285 0.102616 -7.08753 2.00212 
0.835621 -6.17108 -2.12414 2.30508 -6.28883 -2.18922 3.76073 -6.4483 -2.32018 
5.27613 -6.45358 -2.35911 7.13665 -5.99127 -2.16657 9.2967 -5.17133 -1.82014 
11.2291 -4.41678 -1.42369 12.5939 -3.83308 -0.968728 13.5023 -3.25998 -0.467506 
-1.8763 -6.1186 -2.02464 -3.31015 -6.11791 -1.8896 -4.7915 -6.07736 -1.68188 
-6.272 -6.00878 -1.49053 -7.68149 -5.85562 -1.36365 -8.99506 -5.58368 -1.1821 
-10.204 -5.19255 -0.891822 -11.2437 -4.68621 -0.583618 -12.1008 -4.09958 -0.29774 
1.70564 -6.80017 2.02042 3.28924 -6.86488 1.74684 5.00618 -6.9119 1.53873 
6.66874 -6.77682 1.37587 8.31195 -6.35315 1.19167 9.97232 -5.71955 0.959483 
11.3866 -4.99674 0.704477 12.4661 -4.22603 0.450602 13.381 -3.42944 0.213352 
-1.15699 -6.8934 2.36235 -2.84138 -6.92993 2.29342 -4.61147 -6.81084 2.1063 
-6.40958 -6.60272 1.90623 -8.16951 -6.38318 1.73372 -9.61599 -6.05866 1.50263 
-10.617 -5.49282 1.15127 -11.416 -4.7593 0.733377 -12.178 -4.05204 0.33751 
14.8937 8.96725 1.11897 15.4497 7.96101 1.01884 15.8737 6.34635 0.955337 
16.2005 4.6766 0.964505 16.2616 3.27217 0.921256 15.9997 1.90606 0.739665 
15.6789 0.48894 0.51778 15.3562 -0.74742 0.339086 14.8449 -1.75765 0.177187 
-14.177 6.90936 0.868594 -14.9606 6.11788 0.672686 -15.4846 5.12817 0.475601 
-15.6901 4.00842 0.286664 -15.6484 2.73385 0.0881442 -15.4073 1.23735 -0.0323707 
-14.9769 -0.326927 -0.0363066 -14.3738 -1.65749 -0.016446 -13.6326 -2.66233 -0.0182599 
-7.12245 -0.194371 -3.56342 -6.68072 0.271275 -3.57779 -5.63845 -0.609327 -3.64864 
-6.18414 0.785485 -3.54076 -5.12498 -0.204473 -3.66704 -3.89848 -1.04488 -3.70235 
-5.55657 1.22694 -3.49338 -4.48228 0.211394 -3.5892 -3.13888 -0.749898 -3.70638 
-1.78306 -1.43257 -3.67621 -4.63992 1.42262 -3.43244 -3.5179 0.510336 -3.41578 
-2.04901 -0.444254 -3.54743 -0.577929 -1.16729 -3.64496 0.648459 -1.62666 -3.62517 
-3.43024 1.42157 -3.26944 -2.23007 0.614309 -3.22116 -0.659636 -0.131387 -3.29814 
0.927097 -0.776882 -3.44546 2.16043 -1.20152 -3.52147 3.10405 -1.54884 -3.56318 
-2.10756 1.40874 -2.99153 -0.775241 0.672736 -3.00106 0.815599 0.186485 -3.09651 
2.41755 -0.226965 -3.23811 3.69148 -0.583187 -3.32256 4.60526 -0.905267 -3.38517 
5.32296 -1.26651 -3.44976 -0.812373 1.42315 -2.68583 0.720617 0.836317 -2.72124 
2.31829 0.569903 -2.87634 3.77802 0.412165 -3.06963 4.98678 0.182058 -3.17025 
5.9233 -0.112843 -3.23181 6.63669 -0.460825 -3.30346 7.18025 -0.83912 -3.34146 
-9.38258 0.866587 -3.46008 -10.3665 1.68268 -3.35473 -9.02184 1.45208 -3.43582 
-11.3101 2.64731 -3.10019 -9.98995 2.3375 -3.27443 -8.48345 2.02841 -3.35143 
-12.193 3.78663 -2.65565 -10.9171 3.37803 -2.95856 -9.4239 2.95617 -3.14937 
-7.86941 2.56661 -3.33202 -12.9 5.01068 -2.08673 -11.7149 4.58053 -2.45972 
-10.2836 4.04875 -2.77571 -8.75394 3.54879 -3.05039 -7.1383 3.01743 -3.33521 
-13.2512 6.0803 -1.48971 -12.2188 5.7551 -1.85132 -10.87 5.20318 -2.23001 
-9.44242 4.60409 -2.5568 -7.88971 4.03272 -2.89359 -6.12494 3.32661 -3.18513 
-13.2325 6.83305 -0.84779 -12.3382 6.65827 -1.219 -11.1248 6.20688 -1.60023 
-9.77027 5.55042 -1.97364 -8.36983 4.90509 -2.31955 -6.70759 4.29258 -2.67146 
-4.91886 3.45099 -2.92299 -12.9844 7.32074 -0.13264 -12.1587 7.23575 -0.572437 
-11.1133 6.92224 -0.963634 -9.86282 6.3303 -1.36213 -8.54903 5.58958 -1.77695 
-7.05474 4.9602 -2.15887 -5.39552 4.3065 -2.48815 -3.78024 3.33797 -2.67808 
-11.6181 7.80953 0.859882 -10.4375 7.70638 1.06001 -10.708 7.6053 0.31228 
-9.16402 7.3216 1.1939 -9.44644 7.34455 0.481938 -9.70778 7.204 -0.152557 
-7.88872 6.79149 1.29276 -8.14826 6.89689 0.595237 -8.41876 6.82955 -0.0251257 
-8.58707 6.63221 -0.608156 -6.58712 6.16875 1.37739 -6.80366 6.39635 0.701547 
-7.0255 6.36933 0.0400855 -7.18535 6.26285 -0.542694 -7.23326 5.9557 -1.14165 
-5.2312 5.36091 1.38331 -5.35871 5.75114 0.8004 -5.49275 5.85668 0.127017 
-5.61658 5.84574 -0.486127 -5.67779 5.68377 -1.06549 -5.69315 5.30489 -1.61477 
-3.90498 4.39647 1.26505 -3.94524 4.82976 0.786761 -3.98185 5.08674 0.196885 
[...]
POINT_DATA 1002
FIELD FieldData 4
_paraPhi 1 1002 double
6.2831853072 3.1415926536 6.2831853072 3.1415926536 4.7123889804 4.7123889804 1.5707963268 1.5707963268 3.6951670125 
5.7296109483 2.5880182947 0.5535743589 6.2831853072 6.2831853072 6.2831853072 6.2831853072 3.1415926536 3.1415926536 
3.1415926536 3.1415926536 3.1415926536 6.1053039672 5.898798347 5.6768734901 5.4599499503 5.2659633393 5.1032165617 
4.9713148346 4.8656852733 4.7809517865 0.17788134 0.38438696014 0.60631181711 0.82323535693 1.0172219679 1.1799687454 
1.3118704726 1.4175000338 1.5022335207 6.1892828907 6.1070320098 6.035312792 5.9728339911 5.9183214791 5.8706119594 
5.8286879411 5.7916808611 5.7588591896 0.093902416448 0.17615329733 0.2478725152 0.31035131605 0.36486382811 0.41257334776 
0.45449736604 0.4915044461 0.52432611754 3.3194739936 3.5259796137 3.7479044707 3.9648280105 4.1588146215 4.321561399 
4.4534631262 4.5590926874 4.6438261743 2.9637113136 2.7572056934 2.5352808365 2.3183572967 2.1243706857 1.9616239082 
1.829722181 1.7240926197 1.6393591329 3.23549507 3.3177459509 3.3894651688 3.4519439696 3.5064564817 3.5541660013 
3.5960900196 3.6330970997 3.6659187711 3.0476902371 2.9654393563 2.8937201384 2.8312413375 2.7767288255 2.7290193058 
2.6870952876 2.6500882075 2.617266536 6.2831853072 6.2831853072 6.2831853072 6.2831853072 3.1415926536 3.1415926536 
3.1415926536 3.1415926536 3.1415926536 6.1053039672 5.898798347 5.6768734901 5.4599499503 5.2659633393 5.1032165617 
4.9713148346 4.8656852733 4.7809517865 0.17788134 0.38438696014 0.60631181711 0.82323535693 1.0172219679 1.1799687454 
1.3118704726 1.4175000338 1.5022335207 6.1892828907 6.1070320098 6.035312792 5.9728339911 5.9183214791 5.8706119594 
5.8286879411 5.7916808611 5.7588591896 0.093902416448 0.17615329733 0.2478725152 0.31035131605 0.36486382811 0.41257334776 
0.45449736604 0.4915044461 0.52432611754 3.3194739936 3.5259796137 3.7479044707 3.9648280105 4.1588146215 4.321561399 
4.4534631262 4.5590926874 4.6438261743 2.9637113136 2.7572056934 2.5352808365 2.3183572967 2.1243706857 1.9616239082 
1.829722181 1.7240926197 1.6393591329 3.23549507 3.3177459509 3.3894651688 3.4519439696 3.5064564817 3.5541660013 
3.5960900196 3.6330970997 3.6659187711 3.0476902371 2.9654393563 2.8937201384 2.8312413375 2.7767288255 2.7290193058 
2.6870952876 2.6500882075 2.617266536 4.7123889804 4.7123889804 4.7123889804 4.7123889804 4.7123889804 4.7123889804 
4.7123889804 4.7123889804 4.7123889804 4.6087898617 4.4991390697 4.3857031936 4.2712800401 4.1588146215 4.0509635631 
3.94975894 3.8564636551 3.7716124825 4.8159880991 4.9256388911 5.0390747672 5.1534979207 5.2659633393 5.3738143976 
5.4750190208 5.5683143056 5.6531654782 4.6087898617 4.4991390697 4.3857031936 4.2712800401 4.1588146215 4.0509635631 
3.94975894 3.8564636551 3.7716124825 4.8159880991 4.9256388911 5.0390747672 5.1534979207 5.2659633393 5.3738143976 
5.4750190208 5.5683143056 5.6531654782 1.5707963268 1.5707963268 1.5707963268 1.5707963268 1.5707963268 1.5707963268 
1.5707963268 1.5707963268 1.5707963268 1.6743954455 1.7840462375 1.8974821136 2.0119052671 2.1243706857 2.232221744 
2.3334263672 2.426721652 2.5115728246 1.4671972081 1.3575464161 1.24411054 1.1296873865 1.0172219679 0.90937090954 
0.80816628637 0.71487100155 0.63001982895 1.6743954455 1.7840462375 1.8974821136 2.0119052671 2.1243706857 2.232221744 
2.3334263672 2.426721652 2.5115728246 1.4671972081 1.3575464161 1.24411054 1.1296873865 1.0172219679 0.90937090954 
0.80816628637 0.71487100155 0.63001982895 3.6007720849 3.4966939854 3.3839471039 3.2645756454 3.1415926536 3.0186096618 
2.8992382033 2.7864913217 2.6824132222 5.8240058758 5.9280839753 6.0408308569 6.1602023154 6.2831853072 0.12298299178 
0.2423544503 0.35510133185 0.45917943135 6.0560271438 5.7885595667 5.9702140275 5.5125918794 5.6029703303 5.7885595667 
5.2659633393 5.2659633393 5.2659633393 5.2659633393 5.0674903122 5.0120975802 4.9155579264 4.7123889804 4.1588146215 
4.9155579264 4.8353719722 4.7123889804 4.5092200343 4.1588146215 3.6362183941 4.8004512023 4.7123889804 4.5894059886 
4.4126803806 4.1588146215 3.8218076305 3.4545639333 4.7123889804 4.6243267584 4.5092200343 4.3572876485 4.1588146215 
3.9121860814 3.6362183941 3.368750817 6.0174235957 5.9434319871 5.8263323547 5.8809213739 5.7674481418 5.6279784266 
5.8278025282 5.718968232 5.5891129425 5.4372443565 5.7823484065 5.678536687 5.5575666702 5.4192596322 5.2659633393 
5.743164462 5.6444075337 5.5314983644 5.4046708639 5.2659633393 5.1195510325 5.7091357773 5.6152775188 5.5096229709 
5.3926039573 5.2659633393 5.1329233157 4.9978930058 5.6793730533 5.5901633916 5.4910209005 5.3824597928 5.2659633393 
5.1440684722 5.0201624502 4.8979782167 5.5683143056 5.4750190208 5.4750190208 5.3738143976 5.3738143976 5.3738143976 
5.2659633393 5.2659633393 5.2659633393 5.2659633393 5.1534979207 5.1534979207 5.1534979207 5.1534979207 5.1534979207 
5.0390747672 5.0390747672 5.0390747672 5.0390747672 5.0390747672 5.0390747672 4.9256388911 4.9256388911 4.9256388911 
4.9256388911 4.9256388911 4.9256388911 4.9256388911 4.8159880991 4.8159880991 4.8159880991 4.8159880991 4.8159880991 
4.8159880991 4.8159880991 4.8159880991 4.6087898617 4.6087898617 4.4991390697 4.6087898617 4.4991390697 4.3857031936 
4.6087898617 4.4991390697 4.3857031936 4.2712800401 4.6087898617 4.4991390697 4.3857031936 4.2712800401 4.1588146215 
4.6087898617 4.4991390697 4.3857031936 4.2712800401 4.1588146215 4.0509635631 4.6087898617 4.4991390697 4.3857031936 
4.2712800401 4.1588146215 4.0509635631 3.94975894 4.6087898617 4.4991390697 4.3857031936 4.2712800401 4.1588146215 
4.0509635631 3.94975894 3.8564636551 4.526799744 4.4046155105 4.426884955 4.2807094886 4.2918546451 4.3052269283 
4.1588146215 4.1588146215 4.1588146215 4.1588146215 4.042318168 4.0321740035 4.0201070968 4.0055183285 3.9875336042 
3.9337570603 3.9151549899 3.8932795963 3.8672112905 3.8356650183 3.7967995342 3.8346145692 3.809500442 3.7803704271 
3.7462412737 3.7058097288 3.657329819 3.5984456061 3.7454049075 3.7156421835 3.6816134988 3.6424295543 3.5969754326 
3.5438565869 3.4813459737 3.4073543651 3.5642842451 3.4524645613 3.5233842518 3.3320300872 3.403123212 3.4773852225 
3.20576226 3.2746326772 3.348015857 3.4255060145 3.0774230472 3.1415926536 3.2112816139 3.2864685043 3.3668817272 
2.95115522 3.00855263 3.0719036933 3.1415926536 3.2178377658 3.3005964304 2.8307207459 2.8800620952 2.9351694502 
2.9967168029 3.0653475414 3.1415926536 3.225752376 2.718901062 2.7598010554 2.8058000847 2.8576792927 2.91630358 
2.9825888767 3.0574329311 3.1415926536 3.5642842451 3.5233842518 3.4524645613 3.4773852225 3.403123212 3.3320300872 
3.4255060145 3.348015857 3.2746326772 3.20576226 3.3668817272 3.2864685043 3.2112816139 3.1415926536 3.0774230472 
3.3005964304 3.2178377658 3.1415926536 3.0719036933 3.00855263 2.95115522 3.225752376 3.1415926536 3.0653475414 
2.9967168029 2.9351694502 2.8800620952 2.8307207459 3.1415926536 3.0574329311 2.9825888767 2.91630358 2.8576792927 
2.8058000847 2.7598010554 2.718901062 4.526799744 4.426884955 4.4046155105 4.3052269283 4.2918546451 4.2807094886 
4.1588146215 4.1588146215 4.1588146215 4.1588146215 3.9875336042 4.0055183285 4.0201070968 4.0321740035 4.042318168 
3.7967995342 3.8356650183 3.8672112905 3.8932795963 3.9151549899 3.9337570603 3.5984456061 3.657329819 3.7058097288 
3.7462412737 3.7803704271 3.809500442 3.8346145692 3.4073543651 3.4813459737 3.5438565869 3.5969754326 3.6424295543 
3.6816134988 3.7156421835 3.7454049075 4.7123889804 4.8004512023 4.6243267584 4.9155579264 4.7123889804 4.5092200343 
5.0674903122 4.8353719722 4.5894059886 4.3572876485 5.2659633393 5.0120975802 4.7123889804 4.4126803806 4.1588146215 
5.5125918794 5.2659633393 4.9155579264 4.5092200343 4.1588146215 3.9121860814 5.7885595667 5.6029703303 5.2659633393 
4.7123889804 4.1588146215 3.8218076305 3.6362183941 6.0560271438 5.9702140275 5.7885595667 5.2659633393 4.1588146215 
3.6362183941 3.4545639333 3.368750817 0.22715816343 0.49462574053 0.3129712797 0.77059342779 0.68021497688 0.49462574053 
1.0172219679 1.0172219679 1.0172219679 1.0172219679 1.2156949949 1.271087727 1.3676273807 1.5707963268 2.1243706857 
1.3676273807 1.447813335 1.5707963268 1.7739652728 2.1243706857 2.6469669131 1.4827341049 1.5707963268 1.6937793186 
1.8705049266 2.1243706857 2.4613776767 2.8286213739 1.5707963268 1.6588585487 1.7739652728 1.9258976586 2.1243706857 
2.3709992258 2.6469669131 2.9144344902 1.7563855631 1.8785697967 1.8563003522 2.0024758186 1.9913306621 1.9779583789 
2.1243706857 2.1243706857 2.1243706857 2.1243706857 2.2408671392 2.2510113037 2.2630782103 2.2776669786 2.295651703 
2.3494282469 2.3680303173 2.3899057108 2.4159740166 2.4475202889 2.486385773 2.448570738 2.4736848652 2.5028148801 
2.5369440334 2.5773755784 2.6258554882 2.6847397011 2.5377803997 2.5675431237 2.6015718084 2.6407557529 2.6862098746 
2.7393287203 2.8018393335 2.8758309421 1.6743954455 1.6743954455 1.7840462375 1.6743954455 1.7840462375 1.8974821136 
1.6743954455 1.7840462375 1.8974821136 2.0119052671 1.6743954455 1.7840462375 1.8974821136 2.0119052671 2.1243706857 
1.6743954455 1.7840462375 1.8974821136 2.0119052671 2.1243706857 2.232221744 1.6743954455 1.7840462375 1.8974821136 
2.0119052671 2.1243706857 2.232221744 2.3334263672 1.6743954455 1.7840462375 1.8974821136 2.0119052671 2.1243706857 
2.232221744 2.3334263672 2.426721652 1.4671972081 1.3575464161 1.4671972081 1.24411054 1.3575464161 1.4671972081 
1.1296873865 1.24411054 1.3575464161 1.4671972081 1.0172219679 1.1296873865 1.24411054 1.3575464161 1.4671972081 
0.90937090954 1.0172219679 1.1296873865 1.24411054 1.3575464161 1.4671972081 0.80816628637 0.90937090954 1.0172219679 
1.1296873865 1.24411054 1.3575464161 1.4671972081 0.71487100155 0.80816628637 0.90937090954 1.0172219679 1.1296873865 
1.24411054 1.3575464161 1.4671972081 0.60381225391 0.57404952988 0.69302191562 0.54002084522 0.66790778838 0.79216440667 
0.50083690068 0.63877777351 0.77356233629 0.90072551443 0.45538277901 0.60464862014 0.75168694275 0.89058134991 1.0172219679 
0.40226393329 0.56421707518 0.72561863695 0.87851444325 1.0172219679 1.139116835 0.33975332011 0.51573716537 0.69407236469 
0.86392567495 1.0172219679 1.1502619915 1.2630228569 0.26576171152 0.45685295248 0.6552068806 0.84594095064 1.0172219679 
1.1636342747 1.2852923014 1.3852070904 0.22715816343 0.3129712797 0.49462574053 0.49462574053 0.68021497688 0.77059342779 
1.0172219679 1.0172219679 1.0172219679 1.0172219679 2.1243706857 1.5707963268 1.3676273807 1.271087727 1.2156949949 
2.6469669131 2.1243706857 1.7739652728 1.5707963268 1.447813335 1.3676273807 2.8286213739 2.4613776767 2.1243706857 
1.8705049266 1.6937793186 1.5707963268 1.4827341049 2.9144344902 2.6469669131 2.3709992258 2.1243706857 1.9258976586 
1.7739652728 1.6588585487 1.5707963268 1.7563855631 1.8563003522 1.8785697967 1.9779583789 1.9913306621 2.0024758186 
2.1243706857 2.1243706857 2.1243706857 2.1243706857 2.295651703 2.2776669786 2.2630782103 2.2510113037 2.2408671392 
2.486385773 2.4475202889 2.4159740166 2.3899057108 2.3680303173 2.3494282469 2.6847397011 2.6258554882 2.5773755784 
2.5369440334 2.5028148801 2.4736848652 2.448570738 2.8758309421 2.8018393335 2.7393287203 2.6862098746 2.6407557529 
2.6015718084 2.5675431237 2.5377803997 5.8604937156 5.901393709 5.9723133995 5.9473927383 6.0216547488 6.0927478736 
5.9992719463 6.0767621038 6.1501452836 6.2190157008 6.0578962336 6.1383094565 6.2134963469 0 0.064169606361 
6.1241815303 6.206940195 6.2831853072 0.069688960264 0.13304002361 0.19043743361 6.1990255847 0 0.07624511221 
0.14487585072 0.20642320337 0.26153055843 0.3108719077 0 0.084159722458 0.15900377685 0.22528907359 0.28391336087 
0.3357925689 0.38179159818 0.42269159155 5.8604937156 5.9723133995 5.901393709 6.0927478736 6.0216547488 5.9473927383 
6.2190157008 6.1501452836 6.0767621038 5.9992719463 0.064169606361 0 6.2134963469 6.1383094565 6.0578962336 
0.19043743361 0.13304002361 0.069688960264 6.2831853072 6.206940195 6.1241815303 0.3108719077 0.26153055843 0.20642320337 
0.14487585072 0.07624511221 6.2831853072 6.1990255847 0.42269159155 0.38179159818 0.3357925689 0.28391336087 0.22528907359 
0.15900377685 0.084159722458 0 5.6793730533 5.7091357773 5.5901633916 5.743164462 5.6152775188 5.4910209005 
5.7823484065 5.6444075337 5.5096229709 5.3824597928 5.8278025282 5.678536687 5.5314983644 5.3926039573 5.2659633393 
5.8809213739 5.718968232 5.5575666702 5.4046708639 5.2659633393 5.1440684722 5.9434319871 5.7674481418 5.5891129425 
5.4192596322 5.2659633393 5.1329233157 5.0201624502 6.0174235957 5.8263323547 5.6279784266 5.4372443565 5.2659633393 
5.1195510325 4.9978930058 4.8979782167 1.3852070904 1.2852923014 1.2630228569 1.1636342747 1.1502619915 1.139116835 
1.0172219679 1.0172219679 1.0172219679 1.0172219679 0.84594095064 0.86392567495 0.87851444325 0.89058134991 0.90072551443 
0.6552068806 0.69407236469 0.72561863695 0.75168694275 0.77356233629 0.79216440667 0.45685295248 0.51573716537 0.56421707518 
0.60464862014 0.63877777351 0.66790778838 0.69302191562 0.26576171152 0.33975332011 0.40226393329 0.45538277901 0.50083690068 
0.54002084522 0.57404952988 0.60381225391 
_paraPhiHalf 1 1002 double
0 3.1415926536 0 3.1415926536 1.5707963268 1.5707963268 1.5707963268 1.5707963268 2.5880182947 
0.5535743589 2.5880182947 0.5535743589 0 0 0 0 3.1415926536 3.1415926536 
3.1415926536 3.1415926536 3.1415926536 0.17788134 0.38438696014 0.60631181711 0.82323535693 1.0172219679 1.1799687454 
1.3118704726 1.4175000338 1.5022335207 0.17788134 0.38438696014 0.60631181711 0.82323535693 1.0172219679 1.1799687454 
1.3118704726 1.4175000338 1.5022335207 0.093902416448 0.17615329733 0.2478725152 0.31035131605 0.36486382811 0.41257334776 
0.45449736604 0.4915044461 0.52432611754 0.093902416448 0.17615329733 0.2478725152 0.31035131605 0.36486382811 0.41257334776 
0.45449736604 0.4915044461 0.52432611754 2.9637113136 2.7572056934 2.5352808365 2.3183572967 2.1243706857 1.9616239082 
1.829722181 1.7240926197 1.6393591329 2.9637113136 2.7572056934 2.5352808365 2.3183572967 2.1243706857 1.9616239082 
1.829722181 1.7240926197 1.6393591329 3.0476902371 2.9654393563 2.8937201384 2.8312413375 2.7767288255 2.7290193058 
2.6870952876 2.6500882075 2.617266536 3.0476902371 2.9654393563 2.8937201384 2.8312413375 2.7767288255 2.7290193058 
2.6870952876 2.6500882075 2.617266536 0 0 0 0 3.1415926536 3.1415926536 
3.1415926536 3.1415926536 3.1415926536 0.17788134 0.38438696014 0.60631181711 0.82323535693 1.0172219679 1.1799687454 
1.3118704726 1.4175000338 1.5022335207 0.17788134 0.38438696014 0.60631181711 0.82323535693 1.0172219679 1.1799687454 
1.3118704726 1.4175000338 1.5022335207 0.093902416448 0.17615329733 0.2478725152 0.31035131605 0.36486382811 0.41257334776 
0.45449736604 0.4915044461 0.52432611754 0.093902416448 0.17615329733 0.2478725152 0.31035131605 0.36486382811 0.41257334776 
0.45449736604 0.4915044461 0.52432611754 2.9637113136 2.7572056934 2.5352808365 2.3183572967 2.1243706857 1.9616239082 
1.829722181 1.7240926197 1.6393591329 2.9637113136 2.7572056934 2.5352808365 2.3183572967 2.1243706857 1.9616239082 
1.829722181 1.7240926197 1.6393591329 3.0476902371 2.9654393563 2.8937201384 2.8312413375 2.7767288255 2.7290193058 
2.6870952876 2.6500882075 2.617266536 3.0476902371 2.9654393563 2.8937201384 2.8312413375 2.7767288255 2.7290193058 
2.6870952876 2.6500882075 2.617266536 1.5707963268 1.5707963268 1.5707963268 1.5707963268 1.5707963268 1.5707963268 
1.5707963268 1.5707963268 1.5707963268 1.6743954455 1.7840462375 1.8974821136 2.0119052671 2.1243706857 2.232221744 
2.3334263672 2.426721652 2.5115728246 1.4671972081 1.3575464161 1.24411054 1.1296873865 1.0172219679 0.90937090954 
0.80816628637 0.71487100155 0.63001982895 1.6743954455 1.7840462375 1.8974821136 2.0119052671 2.1243706857 2.232221744 
2.3334263672 2.426721652 2.5115728246 1.4671972081 1.3575464161 1.24411054 1.1296873865 1.0172219679 0.90937090954 
0.80816628637 0.71487100155 0.63001982895 1.5707963268 1.5707963268 1.5707963268 1.5707963268 1.5707963268 1.5707963268 
1.5707963268 1.5707963268 1.5707963268 1.6743954455 1.7840462375 1.8974821136 2.0119052671 2.1243706857 2.232221744 
2.3334263672 2.426721652 2.5115728246 1.4671972081 1.3575464161 1.24411054 1.1296873865 1.0172219679 0.90937090954 
0.80816628637 0.71487100155 0.63001982895 1.6743954455 1.7840462375 1.8974821136 2.0119052671 2.1243706857 2.232221744 
2.3334263672 2.426721652 2.5115728246 1.4671972081 1.3575464161 1.24411054 1.1296873865 1.0172219679 0.90937090954 
0.80816628637 0.71487100155 0.63001982895 2.6824132222 2.7864913217 2.8992382033 3.0186096618 3.1415926536 3.0186096618 
2.8992382033 2.7864913217 2.6824132222 0.45917943135 0.35510133185 0.2423544503 0.12298299178 0 0.12298299178 
0.2423544503 0.35510133185 0.45917943135 0.22715816343 0.49462574053 0.3129712797 0.77059342779 0.68021497688 0.49462574053 
1.0172219679 1.0172219679 1.0172219679 1.0172219679 1.2156949949 1.271087727 1.3676273807 1.5707963268 2.1243706857 
1.3676273807 1.447813335 1.5707963268 1.7739652728 2.1243706857 2.6469669131 1.4827341049 1.5707963268 1.6937793186 
1.8705049266 2.1243706857 2.4613776767 2.8286213739 1.5707963268 1.6588585487 1.7739652728 1.9258976586 2.1243706857 
2.3709992258 2.6469669131 2.9144344902 0.26576171152 0.33975332011 0.45685295248 0.40226393329 0.51573716537 0.6552068806 
0.45538277901 0.56421707518 0.69407236469 0.84594095064 0.50083690068 0.60464862014 0.72561863695 0.86392567495 1.0172219679 
0.54002084522 0.63877777351 0.75168694275 0.87851444325 1.0172219679 1.1636342747 0.57404952988 0.66790778838 0.77356233629 
0.89058134991 1.0172219679 1.1502619915 1.2852923014 0.60381225391 0.69302191562 0.79216440667 0.90072551443 1.0172219679 
1.139116835 1.2630228569 1.3852070904 0.71487100155 0.80816628637 0.80816628637 0.90937090954 0.90937090954 0.90937090954 
1.0172219679 1.0172219679 1.0172219679 1.0172219679 1.1296873865 1.1296873865 1.1296873865 1.1296873865 1.1296873865 
1.24411054 1.24411054 1.24411054 1.24411054 1.24411054 1.24411054 1.3575464161 1.3575464161 1.3575464161 
1.3575464161 1.3575464161 1.3575464161 1.3575464161 1.4671972081 1.4671972081 1.4671972081 1.4671972081 1.4671972081 
1.4671972081 1.4671972081 1.4671972081 1.6743954455 1.6743954455 1.7840462375 1.6743954455 1.7840462375 1.8974821136 
1.6743954455 1.7840462375 1.8974821136 2.0119052671 1.6743954455 1.7840462375 1.8974821136 2.0119052671 2.1243706857 
1.6743954455 1.7840462375 1.8974821136 2.0119052671 2.1243706857 2.232221744 1.6743954455 1.7840462375 1.8974821136 
2.0119052671 2.1243706857 2.232221744 2.3334263672 1.6743954455 1.7840462375 1.8974821136 2.0119052671 2.1243706857 
2.232221744 2.3334263672 2.426721652 1.7563855631 1.8785697967 1.8563003522 2.0024758186 1.9913306621 1.9779583789 
2.1243706857 2.1243706857 2.1243706857 2.1243706857 2.2408671392 2.2510113037 2.2630782103 2.2776669786 2.295651703 
2.3494282469 2.3680303173 2.3899057108 2.4159740166 2.4475202889 2.486385773 2.448570738 2.4736848652 2.5028148801 
2.5369440334 2.5773755784 2.6258554882 2.6847397011 2.5377803997 2.5675431237 2.6015718084 2.6407557529 2.6862098746 
2.7393287203 2.8018393335 2.8758309421 2.718901062 2.8307207459 2.7598010554 2.95115522 2.8800620952 2.8058000847 
3.0774230472 3.00855263 2.9351694502 2.8576792927 3.0774230472 3.1415926536 3.0719036933 2.9967168029 2.91630358 
2.95115522 3.00855263 3.0719036933 3.1415926536 3.0653475414 2.9825888767 2.8307207459 2.8800620952 2.9351694502 
2.9967168029 3.0653475414 3.1415926536 3.0574329311 2.718901062 2.7598010554 2.8058000847 2.8576792927 2.91630358 
2.9825888767 3.0574329311 3.1415926536 2.718901062 2.7598010554 2.8307207459 2.8058000847 2.8800620952 2.95115522 
2.8576792927 2.9351694502 3.00855263 3.0774230472 2.91630358 2.9967168029 3.0719036933 3.1415926536 3.0774230472 
2.9825888767 3.0653475414 3.1415926536 3.0719036933 3.00855263 2.95115522 3.0574329311 3.1415926536 3.0653475414 