# vtk DataFile Version 5.1
vtk output
ASCII
DATASET POLYDATA
POINTS 1002 float
-10.7551 -1.25027 -2.20895 -15.6812 -18.1999 -4.2785 -8.43983 -3.50522 4.11217 
-13.8656 -18.4347 1.07313 -10.5861 -9.2323 -2.88584 -9.18556 -9.48875 0.611652 
-18.0763 -7.99511 -0.283744 -17.7103 -9.72849 3.86275 -6.49908 -26.2075 -4.04239 
-0.694953 0.262979 -0.0312562 -17.7898 -23.2893 -1.42477 -11.5183 2.66054 2.70147 
-11.4203 -2.20725 -2.35246 -12.1913 -3.31698 -2.53426 -13.0182 -4.64905 -2.71517 
-13.8316 -6.3855 -2.77463 -14.5906 -8.57113 -2.75461 -15.2354 -10.9321 -2.88443 
-15.6647 -13.1377 -3.21558 -15.8463 -15.058 -3.61153 -15.8355 -16.7245 -3.98122 
-10.4308 -1.53866 -2.4848 -10.0673 -1.99694 -2.69062 -9.68183 -2.59164 -2.85056 
-9.30412 -3.17365 -3.05329 -8.99249 -3.83587 -3.25534 -8.95417 -4.86667 -3.35605 
-9.28751 -6.16139 -3.36576 -9.76764 -7.34056 -3.29534 -10.199 -8.3142 -3.12184 
-11.4929 -1.59927 -2.00318 -12.3402 -2.01813 -1.8245 -13.2629 -2.505 -1.66388 
-14.1849 -3.07599 -1.48113 -15.0497 -3.7594 -1.2722 -15.8238 -4.56399 -1.04155 
-16.5135 -5.43898 -0.810925 -17.1366 -6.31209 -0.615565 -17.6631 -7.16242 -0.44587 
-9.90212 -0.509679 -2.2492 -8.90239 0.204788 -2.25316 -7.67426 0.814003 -2.1684 
-6.23855 1.25459 -1.98829 -4.76758 1.53856 -1.78969 -3.43719 1.68321 -1.6192 
-2.33734 1.62356 -1.38492 -1.51158 1.31634 -0.997127 -0.970189 0.827476 -0.50888 
-10.5963 -0.552436 -1.92313 -10.5025 0.176552 -1.60581 -10.4905 0.89788 -1.2779 
-10.5479 1.51781 -0.879708 -10.6174 2.00968 -0.346046 -10.7053 2.42001 0.232444 
-10.9079 2.73097 0.791774 -11.1892 2.8795 1.41794 -11.4028 2.84648 2.09912 
-15.255 -17.9277 -4.36731 -14.8155 -17.5543 -4.41401 -14.3488 -17.1197 -4.34564 
-13.833 -16.5767 -4.17122 -13.2983 -15.7663 -3.96316 -12.85 -14.6123 -3.68535 
-12.5311 -13.2121 -3.31792 -12.1538 -11.7279 -3.01201 -11.4949 -10.344 -2.8838 
-16.2275 -17.4693 -3.99945 -16.7382 -16.5797 -3.65636 -17.1853 -15.5823 -3.25581 
-17.5687 -14.489 -2.82173 -17.8559 -13.2712 -2.38723 -18.0057 -12.0299 -1.94379 
-18.0701 -10.9059 -1.48489 -18.1119 -9.87805 -1.05279 -18.1187 -8.89443 -0.661975 
-15.0955 -19.5056 -4.54656 -14.2762 -20.8826 -4.74051 -13.282 -22.2644 -4.92097 
-12.2224 -23.524 -5.13363 -11.0878 -24.5885 -5.30285 -9.79341 -25.5135 -5.36582 
-8.45926 -26.2357 -5.32866 -7.37066 -26.5561 -5.11349 -6.71234 -26.4798 -4.65058 
-15.7863 -19.2132 -4.35016 -15.8344 -20.235 -4.31896 -15.8627 -21.1913 -4.16402 
-15.9999 -22.0083 -3.97659 -16.2752 -22.6435 -3.75399 -16.586 -23.1108 -3.39175 
-16.9219 -23.4522 -2.95192 -17.2986 -23.6394 -2.50995 -17.6153 -23.5867 -2.00074 
-9.24835 -4.45692 4.12545 -10.0795 -5.57131 4.11629 -10.9082 -6.87542 4.02254 
-11.7858 -8.35637 3.73672 -12.6454 -10.0282 3.31464 -13.2979 -11.85 2.86654 
-13.6878 -13.6629 2.36905 -13.8867 -15.374 1.85265 -13.9371 -16.9786 1.41861 
-8.22297 -3.91059 3.86337 -7.98509 -4.34353 3.58703 -7.80921 -4.85282 3.28449 
-7.73274 -5.48448 2.94669 -7.75035 -6.19245 2.58623 -7.88329 -6.87705 2.21102 
-8.11775 -7.5458 1.79888 -8.41397 -8.23945 1.36672 -8.77143 -8.90048 0.967142 
-9.1143 -3.68847 4.3778 -9.8862 -3.96643 4.61442 -10.925 -4.40039 4.71103 
-12.2147 -5.04874 4.68971 -13.4968 -5.90404 4.69756 -14.633 -6.83914 4.7323 
-15.6494 -7.69082 4.66383 -16.5081 -8.4153 4.46164 -17.1764 -9.07898 4.17616 
-7.49967 -2.85195 3.91561 -6.50962 -2.16887 3.61914 -5.55192 -1.49607 3.19852 
-4.58305 -0.92571 2.7796 -3.53077 -0.503231 2.45069 -2.51736 -0.198413 2.10532 
-1.71064 0.0224062 1.66411 -1.12974 0.167292 1.14792 -0.776206 0.242935 0.568627 
-8.0964 -2.63462 4.20818 -7.85613 -1.62929 4.24765 -7.82893 -0.569587 4.2392 
-8.02648 0.417159 4.17415 -8.39368 1.26278 4.04326 -8.92757 1.96808 3.88496 
-9.61243 2.47435 3.71734 -10.3375 2.71212 3.48063 -10.9883 2.73892 3.12997 
-13.5174 -18.0732 0.979403 -13.169 -17.5424 0.906649 -12.8266 -16.8111 0.837297 
-12.4951 -15.9099 0.79217 -12.149 -14.8858 0.796332 -11.7412 -13.7373 0.810325 
-11.229 -12.4905 0.828831 -10.6033 -11.2787 0.848552 -9.90322 -10.2575 0.7866 
-14.3087 -17.8485 1.3879 -14.7996 -17.185 1.72288 -15.3191 -16.4583 2.0817 
-15.8457 -15.6923 2.45553 -16.369 -14.8704 2.82042 -16.8256 -13.9371 3.1726 
-17.1738 -12.9072 3.47201 -17.4505 -11.849 3.66419 -17.6447 -10.7857 3.7789 
-13.4666 -19.6669 0.657237 -12.9262 -20.9737 0.187864 -12.1993 -22.3074 -0.267393 
-11.2435 -23.5839 -0.705543 -10.1668 -24.6991 -1.21768 -9.10727 -25.5914 -1.75499 
-8.04967 -26.177 -2.23992 -7.10311 -26.4032 -2.78545 -6.55464 -26.3708 -3.43417 
-14.019 -19.457 0.944437 -14.2031 -20.4646 0.81824 -14.4595 -21.4195 0.686709 
-14.8661 -22.2329 0.531821 -15.4535 -22.8204 0.311498 -16.107 -23.1834 0.0223872 
-16.6732 -23.3853 -0.280654 -17.126 -23.4796 -0.603168 -17.5019 -23.4622 -0.995295 
-10.2563 -9.23002 -2.72302 -9.97061 -9.22707 -2.51109 -9.64037 -9.20702 -2.27746 
-9.2827 -9.20375 -1.99699 -9.01011 -9.28939 -1.61939 -8.84008 -9.41733 -1.15866 
-8.77942 -9.46072 -0.676201 -8.85711 -9.43604 -0.205833 -9.01487 -9.44204 0.232976 
-11.4127 -11.0986 -2.72556 -11.7255 -13.6077 -2.90953 -11.3664 -16.1869 -3.41018 
-10.5213 -18.2125 -3.90823 -9.58194 -19.8591 -4.22128 -8.82192 -21.5707 -4.40733 
-8.20274 -23.205 -4.47347 -7.55236 -24.4886 -4.40661 -6.90671 -25.4561 -4.25701 
-9.18911 -7.90709 -3.09952 -7.71021 -6.85053 -3.16997 -6.48729 -5.71452 -2.92131 
-5.34412 -4.46715 -2.52873 -4.08419 -3.4605 -2.1771 -2.96284 -2.68028 -1.80562 
-2.08653 -1.85604 -1.39288 -1.3351 -1.0369 -0.978446 -0.821694 -0.34278 -0.525879 
-10.0808 -10.6951 0.356847 -10.8302 -12.6405 -0.0551375 -11.0571 -15.3846 -0.665479 
-10.5854 -18.1983 -1.32912 -9.67587 -20.2803 -1.85729 -8.74777 -21.8015 -2.27429 
-7.98987 -23.2228 -2.69014 -7.34943 -24.4688 -3.12132 -6.80308 -25.4284 -3.57231 
-8.14887 -8.55185 0.592842 -7.05869 -7.60614 0.587514 -5.8914 -6.5748 0.619296 
-4.56322 -5.64148 0.637313 -3.25603 -4.8648 0.593712 -2.24129 -3.98433 0.49311 
-1.48096 -2.89742 0.367923 -0.909 -1.77207 0.240108 -0.637084 -0.715162 0.108264 
-18.2667 -7.99361 0.0770894 -18.4828 -8.00156 0.490723 -18.6887 -8.01038 0.973054 
-18.781 -8.0715 1.55013 -18.7525 -8.25919 2.14885 -18.6458 -8.55651 2.65285 
-18.4506 -8.87875 3.05973 -18.2133 -9.18084 3.40611 -17.9806 -9.46459 3.67699 
-18.4963 -9.42617 -0.374777 -18.9663 -10.9368 -0.515566 -19.4742 -12.4421 -0.761964 
-19.876 -14.1911 -1.12738 -19.983 -16.3699 -1.48175 -19.7853 -18.4902 -1.65244 
-19.3908 -20.057 -1.64213 -18.8679 -21.2573 -1.576 -18.305 -22.3549 -1.50968 
-17.7557 -6.63836 0.0215926 -17.3575 -5.2999 0.367443 -16.8573 -3.94853 0.726661 
-16.2456 -2.55737 1.06348 -15.5864 -1.24573 1.36779 -14.9372 -0.0855971 1.67437 
-14.2056 0.914402 1.99433 -13.3232 1.67486 2.27861 -12.3944 2.21494 2.50574 
-18.2493 -11.0787 3.51255 -18.8082 -12.5173 3.1587 -19.2148 -13.9897 2.74523 
-19.4199 -15.5273 2.21852 -19.5028 -17.1817 1.59762 -19.4278 -18.7956 0.967324 
-19.1223 -20.126 0.369475 -18.6695 -21.2314 -0.239728 -18.2086 -22.3004 -0.861647 
-17.3919 -8.19305 4.13881 -17.0412 -6.51765 4.39081 -16.5894 -4.83343 4.52283 
-15.9664 -3.1867 4.54474 -15.2574 -1.56952 4.52686 -14.5701 -0.180614 4.38376 
-13.8333 0.786215 4.01935 -13.0001 1.47734 3.55176 -12.1944 2.09963 3.11444 
-6.55629 -27.0212 -4.14295 -7.37975 -27.5529 -4.0874 -8.99609 -27.6134 -3.77087 
-10.8422 -27.4417 -3.31216 -12.3656 -27.1656 -2.92088 -13.7117 -26.5519 -2.57853 
-15.1238 -25.7561 -2.21365 -16.354 -25.0552 -1.9017 -17.1934 -24.2787 -1.66371 
-1.00341 1.24584 0.205069 -1.57732 2.19323 0.458369 -2.38241 2.88343 0.691284 
-3.51043 3.35078 0.899829 -4.96943 3.75922 1.14906 -6.56354 4.03072 1.51167 
-8.10094 4.03125 1.94185 -9.45228 3.75026 2.3035 -10.5676 3.24635 2.54064 
-11.1518 -2.61777 -2.63663 -10.8588 -3.20926 -2.86362 -11.9668 -3.87972 -2.81321 
-10.5822 -3.85184 -3.07077 -11.7756 -4.61132 -3.03693 -12.8351 -5.44955 -2.90755 
-10.3393 -4.50078 -3.27551 -11.7062 -5.37862 -3.25412 -12.8036 -6.40415 -3.06574 
-13.7106 -7.49514 -2.84797 -10.246 -5.45504 -3.3675 -11.6938 -6.3389 -3.39957 
-12.9339 -7.48039 -3.26756 -13.7802 -8.72153 -2.99011 -14.5067 -9.90652 -2.86237 
-10.5104 -6.78591 -3.30236 -11.7736 -7.70441 -3.33473 -12.9626 -8.89312 -3.37037 
-13.8543 -10.1587 -3.23443 -14.4868 -11.3224 -3.1224 -15.0904 -12.3289 -3.17046 
-10.9854 -8.10888 -3.16531 -12.0175 -9.18278 -3.1434 -12.8748 -10.5071 -3.28812 
-13.6538 -11.8405 -3.39791 -14.3129 -12.9294 -3.44504 -14.8685 -13.7793 -3.55553 
-15.3821 -14.492 -3.63814 -11.3302 -9.24856 -3.01845 -12.1976 -10.4926 -3.02091 
-12.7597 -11.943 -3.22716 -13.2761 -13.3785 -3.49952 -13.8769 -14.5163 -3.7049 
-14.4598 -15.2773 -3.90037 -14.9629 -15.8426 -4.0501 -15.412 -16.3351 -4.05907 
-9.44999 -0.793877 -2.5019 -8.25822 -0.0971686 -2.45123 -8.93665 -1.28076 -2.65163 
-6.83286 0.441301 -2.32124 -7.5857 -0.629531 -2.58501 -8.45014 -1.9096 -2.81307 
-5.31812 0.770059 -2.15704 -6.08664 -0.175145 -2.49998 -7.07566 -1.32546 -2.79808 
-8.04994 -2.55054 -3.05126 -3.93364 0.918042 -1.99053 -4.64186 0.0290144 -2.36188 
-5.64538 -0.986233 -2.70862 -6.77673 -2.10277 -2.99661 -7.79713 -3.37557 -3.22911 
-2.78869 0.878358 -1.77429 -3.43822 0.0121155 -2.12492 -4.33342 -0.937493 -2.46466 
-5.51581 -1.93973 -2.75925 -6.68319 -3.13063 -3.04993 -7.83908 -4.58712 -3.31376 
-1.88673 0.615562 -1.44158 -2.51598 -0.203143 -1.79448 -3.31176 -1.11787 -2.12934 
-4.40314 -2.0453 -2.43319 -5.66539 -3.1059 -2.72836 -6.83506 -4.45946 -3.10528 
-8.16672 -5.91762 -3.36668 -1.22436 0.175876 -1.00097 -1.82221 -0.578392 -1.40241 
-2.59151 -1.44851 -1.76983 -3.55802 -2.32095 -2.13069 -4.80089 -3.23689 -2.44449 
-6.02342 -4.43439 -2.81099 -7.19207 -5.78189 -3.19971 -8.63582 -7.02401 -3.31411 
-0.937335 -1.3795 -0.400203 -1.36345 -2.54833 -0.295566 -1.61028 -2.18116 -0.896298 
-2.00713 -3.7499 -0.196122 -2.11949 -3.40838 -0.845883 -2.46451 -3.03059 -1.3747 
-2.88124 -4.74206 -0.0750571 -2.85813 -4.48428 -0.787745 -3.07548 -4.12849 -1.35547 
-3.49321 -3.76251 -1.81513 -4.0931 -5.54145 0.0664988 -3.91793 -5.37661 -0.674152 
[...]
POINT_DATA 1002
FIELD FieldData 4
_paraPhi 1 1002 double
6.2831853072 3.1415926536 6.2831853072 3.1415926536 4.7123889804 4.7123889804 1.5707963268 1.5707963268 3.6951670125 
5.7296109483 2.5880182947 0.5535743589 6.2831853072 6.2831853072 6.2831853072 6.2831853072 3.1415926536 3.1415926536 
3.1415926536 3.1415926536 3.1415926536 6.1053039672 5.898798347 5.6768734901 5.4599499503 5.2659633393 5.1032165617 
4.9713148346 4.8656852733 4.7809517865 0.17788134 0.38438696014 0.60631181711 0.82323535693 1.0172219679 1.1799687454 
1.3118704726 1.4175000338 1.5022335207 6.1892828907 6.1070320098 6.035312792 5.9728339911 5.9183214791 5.8706119594 
5.8286879411 5.7916808611 5.7588591896 0.093902416448 0.17615329733 0.2478725152 0.31035131605 0.36486382811 0.41257334776 
0.45449736604 0.4915044461 0.52432611754 3.3194739936 3.5259796137 3.7479044707 3.9648280105 4.1588146215 4.321561399 
4.4534631262 4.5590926874 4.6438261743 2.9637113136 2.7572056934 2.5352808365 2.3183572967 2.1243706857 1.9616239082 
1.829722181 1.7240926197 1.6393591329 3.23549507 3.3177459509 3.3894651688 3.4519439696 3.5064564817 3.5541660013 
3.5960900196 3.6330970997 3.6659187711 3.0476902371 2.9654393563 2.8937201384 2.8312413375 2.7767288255 2.7290193058 
2.6870952876 2.6500882075 2.617266536 6.2831853072 6.2831853072 6.2831853072 6.2831853072 3.1415926536 3.1415926536 
3.1415926536 3.1415926536 3.1415926536 6.1053039672 5.898798347 5.6768734901 5.4599499503 5.2659633393 5.1032165617 
4.9713148346 4.8656852733 4.7809517865 0.17788134 0.38438696014 0.60631181711 0.82323535693 1.0172219679 1.1799687454 
1.3118704726 1.4175000338 1.5022335207 6.1892828907 6.1070320098 6.035312792 5.9728339911 5.9183214791 5.8706119594 
5.8286879411 5.7916808611 5.7588591896 0.093902416448 0.17615329733 0.2478725152 0.31035131605 0.36486382811 0.41257334776 
0.45449736604 0.4915044461 0.52432611754 3.3194739936 3.5259796137 3.7479044707 3.9648280105 4.1588146215 4.321561399 
4.4534631262 4.5590926874 4.6438261743 2.9637113136 2.7572056934 2.5352808365 2.3183572967 2.1243706857 1.9616239082 
1.829722181 1.7240926197 1.6393591329 3.23549507 3.3177459509 3.3894651688 3.4519439696 3.5064564817 3.5541660013 
3.5960900196 3.6330970997 3.6659187711 3.0476902371 2.9654393563 2.8937201384 2.8312413375 2.7767288255 2.7290193058 
2.6870952876 2.6500882075 2.617266536 4.7123889804 4.7123889804 4.7123889804 4.7123889804 4.7123889804 4.7123889804 
4.7123889804 4.7123889804 4.7123889804 4.6087898617 4.4991390697 4.3857031936 4.2712800401 4.1588146215 4.0509635631 
3.94975894 3.8564636551 3.7716124825 4.8159880991 4.9256388911 5.0390747672 5.1534979207 5.2659633393 5.3738143976 
5.4750190208 5.5683143056 5.6531654782 4.6087898617 4.4991390697 4.3857031936 4.2712800401 4.1588146215 4.0509635631 
3.94975894 3.8564636551 3.7716124825 4.8159880991 4.9256388911 5.0390747672 5.1534979207 5.2659633393 5.3738143976 
5.4750190208 5.5683143056 5.6531654782 1.5707963268 1.5707963268 1.5707963268 1.5707963268 1.5707963268 1.5707963268 
1.5707963268 1.5707963268 1.5707963268 1.6743954455 1.7840462375 1.8974821136 2.0119052671 2.1243706857 2.232221744 
2.3334263672 2.426721652 2.5115728246 1.4671972081 1.3575464161 1.24411054 1.1296873865 1.0172219679 0.90937090954 
0.80816628637 0.71487100155 0.63001982895 1.6743954455 1.7840462375 1.8974821136 2.0119052671 2.1243706857 2.232221744 
2.3334263672 2.426721652 2.5115728246 1.4671972081 1.3575464161 1.24411054 1.1296873865 1.0172219679 0.90937090954 
0.80816628637 0.71487100155 0.63001982895 3.6007720849 3.4966939854 3.3839471039 3.2645756454 3.1415926536 3.0186096618 
2.8992382033 2.7864913217 2.6824132222 5.8240058758 5.9280839753 6.0408308569 6.1602023154 6.2831853072 0.12298299178 
0.2423544503 0.35510133185 0.45917943135 6.0560271438 5.7885595667 5.9702140275 5.5125918794 5.6029703303 5.7885595667 
5.2659633393 5.2659633393 5.2659633393 5.2659633393 5.0674903122 5.0120975802 4.9155579264 4.7123889804 4.1588146215 
4.9155579264 4.8353719722 4.7123889804 4.5092200343 4.1588146215 3.6362183941 4.8004512023 4.7123889804 4.5894059886 
4.4126803806 4.1588146215 3.8218076305 3.4545639333 4.7123889804 4.6243267584 4.5092200343 4.3572876485 4.1588146215 
3.9121860814 3.6362183941 3.368750817 6.0174235957 5.9434319871 5.8263323547 5.8809213739 5.7674481418 5.6279784266 
5.8278025282 5.718968232 5.5891129425 5.4372443565 5.7823484065 5.678536687 5.5575666702 5.4192596322 5.2659633393 
5.743164462 5.6444075337 5.5314983644 5.4046708639 5.2659633393 5.1195510325 5.7091357773 5.6152775188 5.5096229709 
5.3926039573 5.2659633393 5.1329233157 4.9978930058 5.6793730533 5.5901633916 5.4910209005 5.3824597928 5.2659633393 
5.1440684722 5.0201624502 4.8979782167 5.5683143056 5.4750190208 5.4750190208 5.3738143976 5.3738143976 5.3738143976 
5.2659633393 5.2659633393 5.2659633393 5.2659633393 5.1534979207 5.1534979207 5.1534979207 5.1534979207 5.1534979207 
5.0390747672 5.0390747672 5.0390747672 5.0390747672 5.0390747672 5.0390747672 4.9256388911 4.9256388911 4.9256388911 
4.9256388911 4.9256388911 4.9256388911 4.9256388911 4.8159880991 4.8159880991 4.8159880991 4.8159880991 4.8159880991 
4.8159880991 4.8159880991 4.8159880991 4.6087898617 4.6087898617 4.4991390697 4.6087898617 4.4991390697 4.3857031936 
4.6087898617 4.4991390697 4.3857031936 4.2712800401 4.6087898617 4.4991390697 4.3857031936 4.2712800401 4.1588146215 
4.6087898617 4.4991390697 4.3857031936 4.2712800401 4.1588146215 4.0509635631 4.6087898617 4.4991390697 4.3857031936 
4.2712800401 4.1588146215 4.0509635631 3.94975894 4.6087898617 4.4991390697 4.3857031936 4.2712800401 4.1588146215 
4.0509635631 3.94975894 3.8564636551 4.526799744 4.4046155105 4.426884955 4.2807094886 4.2918546451 4.3052269283 
4.1588146215 4.1588146215 4.1588146215 4.1588146215 4.042318168 4.0321740035 4.0201070968 4.0055183285 3.9875336042 
3.9337570603 3.9151549899 3.8932795963 3.8672112905 3.8356650183 3.7967995342 3.8346145692 3.809500442 3.7803704271 
3.7462412737 3.7058097288 3.657329819 3.5984456061 3.7454049075 3.7156421835 3.6816134988 3.6424295543 3.5969754326 
3.5438565869 3.4813459737 3.4073543651 3.5642842451 3.4524645613 3.5233842518 3.3320300872 3.403123212 3.4773852225 
3.20576226 3.2746326772 3.348015857 3.4255060145 3.0774230472 3.1415926536 3.2112816139 3.2864685043 3.3668817272 
2.95115522 3.00855263 3.0719036933 3.1415926536 3.2178377658 3.3005964304 2.8307207459 2.8800620952 2.9351694502 
2.9967168029 3.0653475414 3.1415926536 3.225752376 2.718901062 2.7598010554 2.8058000847 2.8576792927 2.91630358 
2.9825888767 3.0574329311 3.1415926536 3.5642842451 3.5233842518 3.4524645613 3.4773852225 3.403123212 3.3320300872 
3.4255060145 3.348015857 3.2746326772 3.20576226 3.3668817272 3.2864685043 3.2112816139 3.1415926536 3.0774230472 
3.3005964304 3.2178377658 3.1415926536 3.0719036933 3.00855263 2.95115522 3.225752376 3.1415926536 3.0653475414 
2.9967168029 2.9351694502 2.8800620952 2.8307207459 3.1415926536 3.0574329311 2.9825888767 2.91630358 2.8576792927 
2.8058000847 2.7598010554 2.718901062 4.526799744 4.426884955 4.4046155105 4.3052269283 4.2918546451 4.2807094886 
4.1588146215 4.1588146215 4.1588146215 4.1588146215 3.9875336042 4.0055183285 4.0201070968 4.0321740035 4.042318168 
3.7967995342 3.8356650183 3.8672112905 3.8932795963 3.9151549899 3.9337570603 3.5984456061 3.657329819 3.7058097288 
3.7462412737 3.7803704271 3.809500442 3.8346145692 3.4073543651 3.4813459737 3.5438565869 3.5969754326 3.6424295543 
3.6816134988 3.7156421835 3.7454049075 4.7123889804 4.8004512023 4.6243267584 4.9155579264 4.7123889804 4.5092200343 
5.0674903122 4.8353719722 4.5894059886 4.3572876485 5.2659633393 5.0120975802 4.7123889804 4.4126803806 4.1588146215 
5.5125918794 5.2659633393 4.9155579264 4.5092200343 4.1588146215 3.9121860814 5.7885595667 5.6029703303 5.2659633393 
4.7123889804 4.1588146215 3.8218076305 3.6362183941 6.0560271438 5.9702140275 5.7885595667 5.2659633393 4.1588146215 
3.6362183941 3.4545639333 3.368750817 0.22715816343 0.49462574053 0.3129712797 0.77059342779 0.68021497688 0.49462574053 
1.0172219679 1.0172219679 1.0172219679 1.0172219679 1.2156949949 1.271087727 1.3676273807 1.5707963268 2.1243706857 
1.3676273807 1.447813335 1.5707963268 1.7739652728 2.1243706857 2.6469669131 1.4827341049 1.5707963268 1.6937793186 
1.8705049266 2.1243706857 2.4613776767 2.8286213739 1.5707963268 1.6588585487 1.7739652728 1.9258976586 2.1243706857 
2.3709992258 2.6469669131 2.9144344902 1.7563855631 1.8785697967 1.8563003522 2.0024758186 1.9913306621 1.9779583789 
2.1243706857 2.1243706857 2.1243706857 2.1243706857 2.2408671392 2.2510113037 2.2630782103 2.2776669786 2.295651703 
2.3494282469 2.3680303173 2.3899057108 2.4159740166 2.4475202889 2.486385773 2.448570738 2.4736848652 2.5028148801 
2.5369440334 2.5773755784 2.6258554882 2.6847397011 2.5377803997 2.5675431237 2.6015718084 2.6407557529 2.6862098746 
2.7393287203 2.8018393335 2.8758309421 1.6743954455 1.6743954455 1.7840462375 1.6743954455 1.7840462375 1.8974821136 
1.6743954455 1.7840462375 1.8974821136 2.0119052671 1.6743954455 1.7840462375 1.8974821136 2.0119052671 2.1243706857 
1.6743954455 1.7840462375 1.8974821136 2.0119052671 2.1243706857 2.232221744 1.6743954455 1.7840462375 1.8974821136 
2.0119052671 2.1243706857 2.232221744 2.3334263672 1.6743954455 1.7840462375 1.8974821136 2.0119052671 2.1243706857 
2.232221744 2.3334263672 2.426721652 1.4671972081 1.3575464161 1.4671972081 1.24411054 1.3575464161 1.4671972081 
1.1296873865 1.24411054 1.3575464161 1.4671972081 1.0172219679 1.1296873865 1.24411054 1.3575464161 1.4671972081 
0.90937090954 1.0172219679 1.1296873865 1.24411054 1.3575464161 1.4671972081 0.80816628637 0.90937090954 1.0172219679 
1.1296873865 1.24411054 1.3575464161 1.4671972081 0.71487100155 0.80816628637 0.90937090954 1.0172219679 1.1296873865 
1.24411054 1.3575464161 1.4671972081 0.60381225391 0.57404952988 0.69302191562 0.54002084522 0.66790778838 0.79216440667 
0.50083690068 0.63877777351 0.77356233629 0.90072551443 0.45538277901 0.60464862014 0.75168694275 0.89058134991 1.0172219679 
0.40226393329 0.56421707518 0.72561863695 0.87851444325 1.0172219679 1.139116835 0.33975332011 0.51573716537 0.69407236469 
0.86392567495 1.0172219679 1.1502619915 1.2630228569 0.26576171152 0.45685295248 0.6552068806 0.84594095064 1.0172219679 
1.1636342747 1.2852923014 1.3852070904 0.22715816343 0.3129712797 0.49462574053 0.49462574053 0.68021497688 0.77059342779 
1.0172219679 1.0172219679 1.0172219679 1.0172219679 2.1243706857 1.5707963268 1.3676273807 1.271087727 1.2156949949 
2.6469669131 2.1243706857 1.7739652728 1.5707963268 1.447813335 1.3676273807 2.8286213739 2.4613776767 2.1243706857 
1.8705049266 1.6937793186 1.5707963268 1.4827341049 2.9144344902 2.6469669131 2.3709992258 2.1243706857 1.9258976586 
1.7739652728 1.6588585487 1.5707963268 1.7563855631 1.8563003522 1.8785697967 1.9779583789 1.9913306621 2.0024758186 
2.1243706857 2.1243706857 2.1243706857 2.1243706857 2.295651703 2.2776669786 2.2630782103 2.2510113037 2.2408671392 
2.486385773 2.4475202889 2.4159740166 2.3899057108 2.3680303173 2.3494282469 2.6847397011 2.6258554882 2.5773755784 
2.5369440334 2.5028148801 2.4736848652 2.448570738 2.8758309421 2.8018393335 2.7393287203 2.6862098746 2.6407557529 
2.6015718084 2.5675431237 2.5377803997 5.8604937156 5.901393709 5.9723133995 5.9473927383 6.0216547488 6.0927478736 
5.9992719463 6.0767621038 6.1501452836 6.2190157008 6.0578962336 6.1383094565 6.2134963469 0 0.064169606361 
6.1241815303 6.206940195 6.2831853072 0.069688960264 0.13304002361 0.19043743361 6.1990255847 0 0.07624511221 
0.14487585072 0.20642320337 0.26153055843 0.3108719077 0 0.084159722458 0.15900377685 0.22528907359 0.28391336087 
0.3357925689 0.38179159818 0.42269159155 5.8604937156 5.9723133995 5.901393709 6.0927478736 6.0216547488 5.9473927383 
6.2190157008 6.1501452836 6.0767621038 5.9992719463 0.064169606361 0 6.2134963469 6.1383094565 6.0578962336 
0.19043743361 0.13304002361 0.069688960264 6.2831853072 6.206940195 6.1241815303 0.3108719077 0.26153055843 0.20642320337 
0.14487585072 0.07624511221 6.2831853072 6.1990255847 0.42269159155 0.38179159818 0.3357925689 0.28391336087 0.22528907359 
0.15900377685 0.084159722458 0 5.6793730533 5.7091357773 5.5901633916 5.743164462 5.6152775188 5.4910209005 
5.7823484065 5.6444075337 5.5096229709 5.3824597928 5.8278025282 5.678536687 5.5314983644 5.3926039573 5.2659633393 
5.8809213739 5.718968232 5.5575666702 5.4046708639 5.2659633393 5.1440684722 5.9434319871 5.7674481418 5.5891129425 
5.4192596322 5.2659633393 5.1329233157 5.0201624502 6.0174235957 5.8263323547 5.6279784266 5.4372443565 5.2659633393 
5.1195510325 4.9978930058 4.8979782167 1.3852070904 1.2852923014 1.2630228569 1.1636342747 1.1502619915 1.139116835 
1.0172219679 1.0172219679 1.0172219679 1.0172219679 0.84594095064 0.86392567495 0.87851444325 0.89058134991 0.90072551443 
0.6552068806 0.69407236469 0.72561863695 0.75168694275 0.77356233629 0.79216440667 0.45685295248 0.51573716537 0.56421707518 
0.60464862014 0.63877777351 0.66790778838 0.69302191562 0.26576171152 0.33975332011 0.40226393329 0.45538277901 0.50083690068 
0.54002084522 0.57404952988 0.60381225391 
_paraPhiHalf 1 1002 double
0 3.1415926536 0 3.1415926536 1.5707963268 1.5707963268 1.5707963268 1.5707963268 2.5880182947 
0.5535743589 2.5880182947 0.5535743589 0 0 0 0 3.1415926536 3.1415926536 
3.1415926536 3.1415926536 3.1415926536 0.17788134 0.38438696014 0.60631181711 0.82323535693 1.0172219679 1.1799687454 
1.3118704726 1.4175000338 1.5022335207 0.17788134 0.38438696014 0.60631181711 0.82323535693 1.0172219679 1.1799687454 
1.3118704726 1.4175000338 1.5022335207 0.093902416448 0.17615329733 0.2478725152 0.31035131605 0.36486382811 0.41257334776 
0.45449736604 0.4915044461 0.52432611754 0.093902416448 0.17615329733 0.2478725152 0.31035131605 0.36486382811 0.41257334776 
0.45449736604 0.4915044461 0.52432611754 2.9637113136 2.7572056934 2.5352808365 2.3183572967 2.1243706857 1.9616239082 
1.829722181 1.7240926197 1.6393591329 2.9637113136 2.7572056934 2.5352808365 2.3183572967 2.1243706857 1.9616239082 
1.829722181 1.7240926197 1.6393591329 3.0476902371 2.9654393563 2.8937201384 2.8312413375 2.7767288255 2.7290193058 
2.6870952876 2.6500882075 2.617266536 3.0476902371 2.9654393563 2.8937201384 2.8312413375 2.7767288255 2.7290193058 
2.6870952876 2.6500882075 2.617266536 0 0 0 0 3.1415926536 3.1415926536 
3.1415926536 3.1415926536 3.1415926536 0.17788134 0.38438696014 0.60631181711 0.82323535693 1.0172219679 1.1799687454 
1.3118704726 1.4175000338 1.5022335207 0.17788134 0.38438696014 0.60631181711 0.82323535693 1.0172219679 1.1799687454 
1.3118704726 1.4175000338 1.5022335207 0.093902416448 0.17615329733 0.2478725152 0.31035131605 0.36486382811 0.41257334776 
0.45449736604 0.4915044461 0.52432611754 0.093902416448 0.17615329733 0.2478725152 0.31035131605 0.36486382811 0.41257334776 
0.45449736604 0.4915044461 0.52432611754 2.9637113136 2.7572056934 2.5352808365 2.3183572967 2.1243706857 1.9616239082 
1.829722181 1.7240926197 1.6393591329 2.9637113136 2.7572056934 2.5352808365 2.3183572967 2.1243706857 1.9616239082 
1.829722181 1.7240926197 1.6393591329 3.0476902371 2.9654393563 2.8937201384 2.8312413375 2.7767288255 2.7290193058 
2.6870952876 2.6500882075 2.617266536 3.0476902371 2.9654393563 2.8937201384 2.8312413375 2.7767288255 2.7290193058 
2.6870952876 2.6500882075 2.617266536 1.5707963268 1.5707963268 1.5707963268 1.5707963268 1.5707963268 1.5707963268 
1.5707963268 1.5707963268 1.5707963268 1.6743954455 1.7840462375 1.8974821136 2.0119052671 2.1243706857 2.232221744 
2.3334263672 2.426721652 2.5115728246 1.4671972081 1.3575464161 1.24411054 1.1296873865 1.0172219679 0.90937090954 
0.80816628637 0.71487100155 0.63001982895 1.6743954455 1.7840462375 1.8974821136 2.0119052671 2.1243706857 2.232221744 
2.3334263672 2.426721652 2.5115728246 1.4671972081 1.3575464161 1.24411054 1.1296873865 1.0172219679 0.90937090954 
0.80816628637 0.71487100155 0.63001982895 1.5707963268 1.5707963268 1.5707963268 1.5707963268 1.5707963268 1.5707963268 
1.5707963268 1.5707963268 1.5707963268 1.6743954455 1.7840462375 1.8974821136 2.0119052671 2.1243706857 2.232221744 
2.3334263672 2.426721652 2.5115728246 1.4671972081 1.3575464161 1.24411054 1.1296873865 1.0172219679 0.90937090954 
0.80816628637 0.71487100155 0.63001982895 1.6743954455 1.7840462375 1.8974821136 2.0119052671 2.1243706857 2.232221744 
2.3334263672 2.426721652 2.5115728246 1.4671972081 1.3575464161 1.24411054 1.1296873865 1.0172219679 0.90937090954 
0.80816628637 0.71487100155 0.63001982895 2.6824132222 2.7864913217 2.8992382033 3.0186096618 3.1415926536 3.0186096618 
2.8992382033 2.7864913217 2.6824132222 0.45917943135 0.35510133185 0.2423544503 0.12298299178 0 0.12298299178 
0.2423544503 0.35510133185 0.45917943135 0.22715816343 0.49462574053 0.3129712797 0.77059342779 0.68021497688 0.49462574053 
1.0172219679 1.0172219679 1.0172219679 1.0172219679 1.2156949949 1.271087727 1.3676273807 1.5707963268 2.1243706857 
1.3676273807 1.447813335 1.5707963268 1.7739652728 2.1243706857 2.6469669131 1.4827341049 1.5707963268 1.6937793186 
1.8705049266 2.1243706857 2.4613776767 2.8286213739 1.5707963268 1.6588585487 1.7739652728 1.9258976586 2.1243706857 
2.3709992258 2.6469669131 2.9144344902 0.26576171152 0.33975332011 0.45685295248 0.40226393329 0.51573716537 0.6552068806 
0.45538277901 0.56421707518 0.69407236469 0.84594095064 0.50083690068 0.60464862014 0.72561863695 0.86392567495 1.0172219679 
0.54002084522 0.63877777351 0.75168694275 0.87851444325 1.0172219679 1.1636342747 0.57404952988 0.66790778838 0.77356233629 
0.89058134991 1.0172219679 1.1502619915 1.2852923014 0.60381225391 0.69302191562 0.79216440667 0.90072551443 1.0172219679 
1.139116835 1.2630228569 1.3852070904 0.71487100155 0.80816628637 0.80816628637 0.90937090954 0.90937090954 0.90937090954 
1.0172219679 1.0172219679 1.0172219679 1.0172219679 1.1296873865 1.1296873865 1.1296873865 1.1296873865 1.1296873865 
1.24411054 1.24411054 1.24411054 1.24411054 1.24411054 1.24411054 1.3575464161 1.3575464161 1.3575464161 
1.3575464161 1.3575464161 1.3575464161 1.3575464161 1.4671972081 1.4671972081 1.4671972081 1.4671972081 1.4671972081 
1.4671972081 1.4671972081 1.4671972081 1.6743954455 1.6743954455 1.7840462375 1.6743954455 1.7840462375 1.8974821136 
1.6743954455 1.7840462375 1.8974821136 2.0119052671 1.6743954455 1.7840462375 1.8974821136 2.0119052671 2.1243706857 
1.6743954455 1.7840462375 1.8974821136 2.0119052671 2.1243706857 2.232221744 1.6743954455 1.7840462375 1.8974821136 
2.0119052671 2.1243706857 2.232221744 2.3334263672 1.6743954455 1.7840462375 1.8974821136 2.0119052671 2.1243706857 
2.232221744 2.3334263672 2.426721652 1.7563855631 1.8785697967 1.8563003522 2.0024758186 1.9913306621 1.9779583789 
2.1243706857 2.1243706857 2.1243706857 2.1243706857 2.2408671392 2.2510113037 2.2630782103 2.2776669786 2.295651703 
2.3494282469 2.3680303173 2.3899057108 2.4159740166 2.4475202889 2.486385773 2.448570738 2.4736848652 2.5028148801 
2.5369440334 2.5773755784 2.6258554882 2.6847397011 2.5377803997 2.5675431237 2.6015718084 2.6407557529 2.6862098746 
2.7393287203 2.8018393335 2.8758309421 2.718901062 2.8307207459 2.7598010554 2.95115522 2.8800620952 2.8058000847 
3.0774230472 3.00855263 2.9351694502 2.8576792927 3.0774230472 3.1415926536 3.0719036933 2.9967168029 2.91630358 
2.95115522 3.00855263 3.0719036933 3.1415926536 3.0653475414 2.9825888767 2.8307207459 2.8800620952 2.9351694502 
2.9967168029 3.0653475414 3.1415926536 3.0574329311 2.718901062 2.7598010554 2.8058000847 2.8576792927 2.91630358 
2.9825888767 3.0574329311 3.1415926536 2.718901062 2.7598010554 2.8307207459 2.8058000847 2.8800620952 2.95115522 
2.8576792927 2.9351694502 3.00855263 3.0774230472 2.91630358 2.9967168029 3.0719036933 3.1415926536 3.0774230472 
2.9825888767 3.0653475414 3.1415926536 3.0719036933 3.00855263 2.95115522 3.0574329311 3.1415926536 3.0653475414 