# vtk DataFile Version 5.1
vtk output
ASCII
DATASET POLYDATA
POINTS 100 float
-4.58222 3.76855 1.45401 -4.59272 3.76127 1.45263 -4.62323 3.73793 1.45236 
-4.67205 3.69886 1.45346 -4.73656 3.64459 1.45623 -4.81351 3.57575 1.46097 
-4.89946 3.49296 1.46784 -4.99115 3.39674 1.47686 -5.08586 3.28747 1.48784 
-5.1817 3.16535 1.5004 -5.27773 3.03041 1.51406 -5.37397 2.88266 1.52829 
-5.47134 2.72209 1.54264 -5.57136 2.54884 1.55678 -5.67596 2.36324 1.57063 
-5.78709 2.1659 1.58431 -5.90652 1.9577 1.5981 -6.03557 1.7398 1.6124 
-6.17501 1.51351 1.62757 -6.32504 1.28028 1.64388 -6.48532 1.04156 1.66134 
-6.65514 0.798695 1.67975 -6.83359 0.55286 1.6986 -7.01971 0.304981 1.71723 
-7.21269 0.0556782 1.73484 -7.41197 -0.194768 1.75065 -7.61728 -0.446445 1.76403 
-7.82861 -0.699816 1.77458 -8.04613 -0.955715 1.78214 -8.27008 -1.21531 1.78685 
-8.50065 -1.48003 1.78904 -8.73781 -1.75149 1.78917 -8.98128 -2.03128 1.78773 
-9.23049 -2.32088 1.7851 -9.48458 -2.62141 1.78154 -9.74254 -2.93349 1.77711 
-10.0033 -3.25711 1.77172 -10.2658 -3.59163 1.76519 -10.5294 -3.9358 1.75729 
-10.7936 -4.28799 1.74785 -11.0583 -4.64641 1.73679 -11.3239 -5.00948 1.72412 
-11.591 -5.37619 1.70994 -11.8601 -5.74635 1.69431 -12.1318 -6.12083 1.6772 
-12.4064 -6.50152 1.65834 -12.6835 -6.89127 1.63719 -12.9619 -7.2935 1.61286 
-13.24 -7.71175 1.58415 -13.5151 -8.14915 1.54968 -13.7837 -8.60795 1.50801 
-14.0422 -9.08902 1.4578 -14.2863 -9.59167 1.39806 -14.5121 -10.1136 1.32821 
-14.7161 -10.6512 1.24828 -14.8954 -11.1997 1.15882 -15.048 -11.7542 1.06096 
-15.173 -12.3095 0.956197 -15.2706 -12.8617 0.84627 -15.3422 -13.4075 0.732978 
-15.3896 -13.9452 0.618005 -15.4156 -14.4742 0.50279 -15.4229 -14.9951 0.388465 
-15.4145 -15.5089 0.275839 -15.3929 -16.017 0.165441 -15.3602 -16.5203 0.0576037 
-15.3181 -17.0191 -0.0474555 -15.2674 -17.5131 -0.14955 -15.2088 -18.0009 -0.248477 
-15.1424 -18.4808 -0.344005 -15.0684 -18.9508 -0.435897 -14.9868 -19.4088 -0.523954 
-14.8982 -19.8535 -0.608071 -14.8033 -20.284 -0.688277 -14.7034 -20.7003 -0.764739 
-14.6003 -21.1029 -0.837742 -14.4959 -21.4926 -0.90762 -14.3926 -21.8704 -0.974673 
-14.2927 -22.2365 -1.03907 -14.1984 -22.5909 -1.10077 -14.1118 -22.9323 -1.1595 
-14.0344 -23.2591 -1.21472 -13.9677 -23.5689 -1.26573 -13.9123 -23.8593 -1.31175 
-13.8686 -24.1282 -1.35206 -13.8366 -24.3741 -1.38613 -13.8159 -24.5968 -1.41371 
-13.806 -24.797 -1.43493 -13.8058 -24.9763 -1.45028 -13.8143 -25.1374 -1.46054 
-13.8301 -25.2829 -1.46671 -13.8516 -25.4152 -1.46987 -13.8771 -25.5362 -1.47101 
-13.9047 -25.6464 -1.47098 -13.9324 -25.7455 -1.47035 -13.9584 -25.8317 -1.46946 
-13.9807 -25.9027 -1.46842 -13.9978 -25.956 -1.4672 -14.0084 -25.9892 -1.46568 
-14.0119 -26.0006 -1.46381 
LINES 2 100
OFFSETS vtktypeint64
0 100 
CONNECTIVITY vtktypeint64
0 1 2 3 4 5 6 7 8 
9 10 11 12 13 14 15 16 17 
18 19 20 21 22 23 24 25 26 
27 28 29 30 31 32 33 34 35 
36 37 38 39 40 41 42 43 44 
45 46 47 48 49 50 51 52 53 
54 55 56 57 58 59 60 61 62 
63 64 65 66 67 68 69 70 71 
72 73 74 75 76 77 78 79 80 
81 82 83 84 85 86 87 88 89 
90 91 92 93 94 95 96 97 98 
99 
POINT_DATA 100
FIELD FieldData 3
_theta 1 100 double
0 0.031733259127 0.063466518254 0.095199777382 0.12693303651 0.15866629564 0.19039955476 0.22213281389 0.25386607302 
0.28559933214 0.31733259127 0.3490658504 0.38079910953 0.41253236865 0.44426562778 0.47599888691 0.50773214603 0.53946540516 
0.57119866429 0.60293192342 0.63466518254 0.66639844167 0.6981317008 0.72986495992 0.76159821905 0.79333147818 0.82506473731 
0.85679799643 0.88853125556 0.92026451469 0.95199777382 0.98373103294 1.0154642921 1.0471975512 1.0789308103 1.1106640695 
1.1423973286 1.1741305877 1.2058638468 1.237597106 1.2693303651 1.3010636242 1.3327968833 1.3645301425 1.3962634016 
1.4279966607 1.4597299198 1.491463179 1.5231964381 1.5549296972 1.5866629564 1.6183962155 1.6501294746 1.6818627337 
1.7135959929 1.745329252 1.7770625111 1.8087957702 1.8405290294 1.8722622885 1.9039955476 1.9357288068 1.9674620659 
1.999195325 2.0309285841 2.0626618433 2.0943951024 2.1261283615 2.1578616206 2.1895948798 2.2213281389 2.253061398 
2.2847946572 2.3165279163 2.3482611754 2.3799944345 2.4117276937 2.4434609528 2.4751942119 2.506927471 2.5386607302 
2.5703939893 2.6021272484 2.6338605076 2.6655937667 2.6973270258 2.7290602849 2.7607935441 2.7925268032 2.8242600623 
2.8559933214 2.8877265806 2.9194598397 2.9511930988 2.982926358 3.0146596171 3.0463928762 3.0781261353 3.1098593945 
3.1415926536 
_radius 1 100 double
7.656515266e-15 0.29587789885 0.58899381935 0.87675788493 1.1571014727 1.4286203966 1.6905893891 1.9428459773 2.1855750556 
2.4190528422 2.6434190464 2.8585340609 3.0639490083 3.2589828232 3.4428743489 3.614964621 3.7748642405 3.9225689393 
4.0584992615 4.1834549612 4.2984892707 4.4047214512 4.5031178804 4.594282258 4.6783023715 4.7546994376 4.8225109668 
4.8805082243 4.9275114005 4.9627325577 4.9860613542 4.9982179248 5.0007282526 4.9957196329 4.9855744926 4.972509363 
4.95815739 4.9432290028 4.9273120939 4.908855713 4.8853603641 4.8537690911 4.8110141129 4.7546309402 4.6833223865 
4.5973552274 4.4987076731 4.3909462904 4.2788759601 4.1680528367 4.0642599519 3.9730122369 3.8990993135 3.8461369745 
3.8161332177 3.8091708787 3.8233665254 3.8551990625 3.9001452007 3.9534232217 4.01061934 4.0680572534 4.1229004885 
4.1730717631 4.217101047 4.2539860718 4.2831001383 4.3041441624 4.3171250878 4.3223433609 4.3203745498 4.3120283944 
4.2982665184 4.2800648863 4.2582224603 4.2331409146 4.2046231967 4.1717484125 4.1328662163 4.0857177928 4.0276520859 
3.9558883331 3.8677848255 3.7610931257 3.6341862965 3.4862422594 3.3173490535 3.1284942896 2.9214182068 2.6983475178 
2.4616710453 2.2136452533 1.9562089693 1.6909403808 1.4191290971 1.1418971105 0.86030456534 0.57540871174 0.28828026227 
1.1247342736e-14 
_area 1 100 double
0 0.24220836153 0.95927526771 2.1235344636 3.6923842145 5.6137138277 7.8329387534 10.299981696 12.974033291 
15.824514436 18.828209797 21.964168545 25.20868237 28.532200386 31.899002972 35.269484133 38.604195238 41.868382567 
45.035710815 48.090254277 51.026398796 53.846648358 56.557402245 59.162917434 61.658289151 64.023293459 66.219659404 
68.193953609 69.8865413 71.244715067 72.236240823 72.859227797 73.145536999 73.157008692 72.975313202 72.686950649 
72.366089176 72.059694752 71.77863701 71.494323867 71.138895529 70.611024562 69.792370167 68.575526787 66.895997521 
64.756377786 62.233933955 59.4698022 56.644129233 53.944192929 51.532782798 49.524726423 47.98037027 46.917579691 
46.327947276 46.181272364 46.420989661 46.965029216 47.717367357 48.5818914 49.470897993 50.309307449 51.038017328 
51.617219163 52.028496794 52.272771831 52.361668909 52.304665715 52.099913671 51.7365563 51.207873924 50.525046078 
49.721314903 48.844231243 47.940540798 47.040567533 46.147905049 45.237278985 44.259951843 43.153614179 41.85323498 
40.300562602 38.451783327 36.283929374 33.800233295 31.033241 28.043593257 24.913081292 21.732724208 18.589162798 
15.554173248 12.681181622 10.009266052 7.5713845174 5.402036567 3.5408630383 2.031367438 0.91617979353 0.23112627046 
7.4717901348e-14 
