# vtk DataFile Version 5.1
vtk output
ASCII
DATASET POLYDATA
POINTS 1002 float
-10.2014 -0.577973 -0.642523 -16.8907 -15.6113 -1.31447 -7.38575 -2.75301 4.93702 
-14.4621 -15.9706 3.42012 -10.9281 -7.74784 -0.888488 -9.22468 -8.52944 2.03026 
-17.439 -6.02127 2.68977 -16.6865 -7.85575 6.46787 -9.27509 -24.2612 -2.14614 
-0.738386 -0.0585393 -0.024475 -18.9934 -19.9669 1.76231 -9.96558 3.31955 3.86839 
-10.9024 -1.40652 -0.58387 -11.7141 -2.37325 -0.525227 -12.6261 -3.52244 -0.469799 
-13.6337 -4.99049 -0.359712 -14.6673 -6.85312 -0.206501 -15.5497 -8.92632 -0.19285 
-16.1785 -10.9182 -0.418037 -16.5971 -12.6869 -0.758711 -16.8383 -14.238 -1.07296 
-9.94101 -0.892948 -0.88589 -9.6984 -1.30299 -1.15831 -9.4863 -1.85892 -1.40474 
-9.36905 -2.54409 -1.54133 -9.40877 -3.36225 -1.61929 -9.57705 -4.32483 -1.70441 
-9.81085 -5.27221 -1.67227 -10.1027 -6.07455 -1.44283 -10.4782 -6.85278 -1.13979 
-10.9024 -0.782592 -0.346294 -11.6898 -1.05588 0.00204265 -12.5665 -1.45138 0.358721 
-13.4583 -1.96258 0.712798 -14.2834 -2.53567 1.10231 -15.0369 -3.18592 1.50085 
-15.7372 -3.91815 1.84517 -16.377 -4.66243 2.14983 -16.9451 -5.36934 2.43965 
-9.32285 0.00525073 -0.829965 -8.29308 0.5669 -1.00678 -7.14514 1.05023 -1.17533 
-5.95167 1.42318 -1.29993 -4.6955 1.67785 -1.35671 -3.37928 1.7021 -1.36355 
-2.21825 1.39412 -1.25819 -1.41818 0.893982 -0.948999 -0.959482 0.39904 -0.492235 
-9.99838 0.0883846 -0.511007 -9.85133 0.761175 -0.305732 -9.73273 1.40503 -0.0125279 
-9.63277 2.0089 0.344874 -9.57359 2.54138 0.791066 -9.58882 2.96205 1.32886 
-9.71281 3.26226 1.91442 -9.88928 3.42817 2.56857 -9.98673 3.44271 3.26384 
-16.491 -15.4567 -1.44559 -16.0635 -15.2396 -1.55588 -15.5987 -14.9212 -1.62651 
-15.0584 -14.401 -1.57592 -14.4955 -13.6129 -1.38932 -14.0049 -12.598 -1.1557 
-13.5088 -11.3855 -0.910259 -12.8345 -10.0229 -0.711492 -11.9401 -8.72859 -0.698186 
-17.2805 -14.8576 -1.0165 -17.6205 -13.9465 -0.661185 -17.867 -12.9046 -0.264802 
-18.0151 -11.7732 0.149537 -18.0756 -10.6176 0.602592 -18.0218 -9.52741 1.08986 
-17.879 -8.53458 1.54601 -17.7334 -7.6139 1.95473 -17.5998 -6.76839 2.3396 
-16.5173 -16.8699 -1.61829 -15.9307 -18.2255 -1.93553 -15.2007 -19.6296 -2.27706 
-14.4216 -20.9042 -2.61791 -13.569 -21.9741 -2.85739 -12.6106 -22.9494 -2.99095 
-11.6131 -23.7724 -3.09473 -10.642 -24.253 -3.05246 -9.80685 -24.3799 -2.70869 
-17.0692 -16.5215 -1.32134 -17.2132 -17.4345 -1.2914 -17.4088 -18.2611 -1.24898 
-17.6561 -18.9945 -1.11464 -17.8652 -19.6293 -0.808902 -18.094 -20.0823 -0.412808 
-18.4257 -20.3202 0.0220719 -18.7401 -20.3748 0.55765 -18.9205 -20.2502 1.17228 
-8.11933 -3.61559 5.11369 -8.97412 -4.6384 5.31364 -9.91923 -5.79358 5.45656 
-10.9172 -7.04501 5.4416 -11.949 -8.4299 5.29269 -12.9396 -9.97627 5.01854 
-13.7086 -11.5997 4.5833 -14.1564 -13.1883 4.10845 -14.3662 -14.665 3.72905 
-7.22324 -3.22606 4.72754 -7.15337 -3.75992 4.46935 -7.14185 -4.34486 4.17933 
-7.15749 -4.95729 3.88114 -7.27858 -5.55433 3.54163 -7.54312 -6.13835 3.15553 
-7.8569 -6.77234 2.81526 -8.20196 -7.43783 2.55595 -8.65642 -8.03173 2.30785 
-8.06197 -2.8393 5.22756 -8.77348 -3.00339 5.56718 -9.40247 -3.19865 5.99176 
-10.1109 -3.43776 6.3436 -11.2018 -3.86574 6.44953 -12.553 -4.55131 6.41405 
-13.7801 -5.40067 6.41105 -14.8242 -6.30995 6.45041 -15.8051 -7.16828 6.48236 
-6.5911 -2.25395 4.60414 -5.78272 -1.77436 4.1725 -4.92446 -1.28235 3.67297 
-4.05956 -0.815699 3.1307 -3.25316 -0.482646 2.59297 -2.42977 -0.277409 2.14054 
-1.61071 -0.104274 1.72626 -1.02149 0.0132631 1.21456 -0.75972 0.0125719 0.595614 
-7.11615 -1.94709 4.94991 -6.90985 -1.02346 4.92049 -6.80223 -0.0207292 4.84465 
-6.84101 0.894598 4.80518 -7.07498 1.65277 4.76988 -7.47533 2.34663 4.61683 
-7.9863 2.92809 4.42218 -8.61836 3.26222 4.29027 -9.32513 3.36547 4.1343 
-14.0984 -15.6868 3.30151 -13.7258 -15.2583 3.18534 -13.3842 -14.607 3.05811 
-13.0834 -13.7611 2.92321 -12.7192 -12.8098 2.83118 -12.1817 -11.7775 2.80753 
-11.5027 -10.7358 2.76167 -10.7616 -9.82438 2.59726 -9.9913 -9.09683 2.33284 
-14.7804 -15.4355 3.75282 -15.1151 -14.8302 4.13707 -15.4659 -14.1099 4.53544 
-15.7902 -13.2833 4.91269 -16.0663 -12.4543 5.2988 -16.3378 -11.6803 5.69849 
-16.5932 -10.8796 6.03367 -16.7456 -9.95064 6.26173 -16.7617 -8.90715 6.40153 
-14.266 -17.076 3.0022 -13.976 -18.2462 2.47795 -13.5454 -19.4879 1.91285 
-12.8911 -20.8263 1.41641 -12.0355 -22.1295 0.948233 -11.1423 -23.1756 0.447699 
-10.3174 -23.8958 -0.0670653 -9.63993 -24.3112 -0.68304 -9.26961 -24.4217 -1.43528 
-14.7399 -16.8642 3.30042 -15.0595 -17.7331 3.17064 -15.4228 -18.5283 3.07242 
-15.8545 -19.2223 3.03102 -16.416 -19.7916 2.98699 -17.0971 -20.1542 2.86496 
-17.7526 -20.2813 2.66863 -18.275 -20.267 2.42071 -18.6793 -20.1688 2.11439 
-10.5925 -7.87207 -0.893197 -10.2782 -8.00028 -0.802481 -9.98739 -8.06903 -0.574065 
-9.71573 -8.09763 -0.280314 -9.456 -8.21229 -0.00465174 -9.23107 -8.41349 0.299953 
-9.10428 -8.53246 0.702031 -9.09266 -8.53084 1.16867 -9.14538 -8.51646 1.6272 
-11.9899 -9.57809 -0.643265 -12.6441 -12.0452 -0.777878 -12.5518 -14.5088 -1.28539 
-11.931 -16.4035 -1.88134 -11.2909 -17.9478 -2.30152 -10.7811 -19.5308 -2.51112 
-10.2637 -21.0504 -2.59437 -9.73584 -22.3546 -2.59406 -9.35941 -23.4449 -2.46145 
-9.52177 -6.61843 -1.35693 -8.12929 -5.81117 -1.75442 -6.84091 -4.88509 -1.81995 
-5.53339 -3.86179 -1.68267 -4.25506 -3.11482 -1.58013 -3.10801 -2.47095 -1.45355 
-2.06264 -1.71447 -1.20993 -1.24887 -1.07931 -0.893554 -0.830065 -0.591779 -0.502292 
-10.3574 -9.47744 1.89756 -11.4138 -11.0057 1.64709 -11.9468 -13.3143 1.22981 
-11.7252 -15.985 0.691442 -11.0652 -18.2407 0.140375 -10.4088 -19.8776 -0.384999 
-9.835 -21.2371 -0.883635 -9.33372 -22.4738 -1.33793 -9.09248 -23.5044 -1.75915 
-8.06561 -7.76781 1.86677 -6.90523 -6.98776 1.64844 -5.77543 -6.13304 1.36942 
-4.62129 -5.27372 1.06243 -3.46565 -4.49446 0.826347 -2.42325 -3.72792 0.670055 
-1.56702 -2.84618 0.492862 -0.969417 -1.86749 0.285865 -0.706764 -0.916107 0.112639 
-17.5983 -5.9725 3.04337 -17.7445 -5.91215 3.46269 -17.8803 -5.87047 4.00218 
-17.9168 -5.94655 4.59524 -17.7763 -6.1736 5.07697 -17.5804 -6.46855 5.46066 
-17.4693 -6.79487 5.86725 -17.3517 -7.16787 6.22809 -17.0848 -7.54314 6.41952 
-18.0343 -7.12354 2.67399 -18.6804 -8.31653 2.57832 -19.3466 -9.55521 2.43803 
-19.8906 -10.9242 2.28285 -20.1366 -12.7024 2.05348 -20.1341 -14.8555 1.76755 
-20.0457 -16.808 1.60474 -19.845 -18.1837 1.6273 -19.4658 -19.155 1.71096 
-16.9397 -4.88718 2.86268 -16.3856 -3.64027 3.0155 -15.7921 -2.34439 3.19475 
-15.1229 -1.13969 3.39923 -14.3639 -0.0761734 3.54112 -13.5613 0.907149 3.61506 
-12.707 1.76558 3.70758 -11.7824 2.4193 3.81045 -10.8504 2.91829 3.86466 
-17.4994 -9.03475 6.33025 -18.17 -10.1837 6.05908 -18.7353 -11.4479 5.69574 
-19.2601 -12.8606 5.27302 -19.6298 -14.3203 4.77869 -19.7801 -15.7961 4.19428 
-19.7926 -17.1546 3.55043 -19.6477 -18.2326 2.91131 -19.3416 -19.1265 2.31463 
-16.0368 -6.36114 6.48272 -15.3284 -4.70477 6.44618 -14.5921 -3.01712 6.44945 
-13.8266 -1.4037 6.49106 -13.1464 -0.00665681 6.42007 -12.5901 1.01046 6.10307 
-11.9565 1.70678 5.5757 -11.1938 2.30002 4.97812 -10.4982 2.85875 4.40691 
-9.79881 -24.8951 -2.0412 -10.8105 -25.1082 -1.74005 -12.1756 -24.9595 -1.265 
-13.5527 -24.6908 -0.753411 -14.7319 -24.2258 -0.269468 -15.8713 -23.4779 0.227539 
-17.0001 -22.7123 0.694485 -17.8737 -21.9424 1.08263 -18.4784 -20.9872 1.4331 
-0.919564 0.883883 0.230792 -1.27727 1.85866 0.492934 -1.90385 2.64004 0.732293 
-2.83512 3.24985 1.00473 -3.92058 3.77047 1.37302 -5.15535 4.06602 1.8656 
-6.60409 4.11981 2.46345 -8.00074 4.02358 3.04382 -9.09418 3.74716 3.50425 
-10.7295 -1.78561 -0.855609 -10.5742 -2.28979 -1.12711 -11.618 -2.85839 -0.787364 
-10.4756 -2.97462 -1.3198 -11.5632 -3.52055 -0.984384 -12.6187 -4.20937 -0.639876 
-10.5133 -3.80556 -1.42483 -11.6308 -4.36447 -1.10996 -12.7048 -5.08267 -0.725643 
-13.7448 -5.95106 -0.436284 -10.6876 -4.74211 -1.48795 -11.846 -5.33515 -1.20416 
-12.9337 -6.09892 -0.818692 -13.9453 -7.04783 -0.521693 -14.8388 -8.05166 -0.343178 
-10.942 -5.71719 -1.42086 -12.1254 -6.40986 -1.17474 -13.2082 -7.28452 -0.883419 
-14.1689 -8.29576 -0.666866 -15.0022 -9.36192 -0.57204 -15.649 -10.2715 -0.489934 
-11.2548 -6.65146 -1.16149 -12.4169 -7.54721 -0.960395 -13.4186 -8.63453 -0.817989 
-14.2656 -9.74633 -0.773572 -15.0376 -10.8089 -0.836448 -15.6601 -11.7001 -0.856156 
-16.1385 -12.3086 -0.804894 -11.6021 -7.62108 -0.868621 -12.6758 -8.74164 -0.750107 
-13.5352 -10.0274 -0.772496 -14.2007 -11.246 -0.887887 -14.8487 -12.2966 -1.08504 
-15.4758 -13.1226 -1.22852 -15.9773 -13.6789 -1.22151 -16.4085 -14.0173 -1.15124 
-8.9564 -0.333282 -1.08096 -7.83376 0.159626 -1.276 -8.62478 -0.815274 -1.367 
-6.63176 0.559036 -1.45679 -7.443 -0.406282 -1.58112 -8.36116 -1.42016 -1.60884 
-5.37679 0.878426 -1.54812 -6.19403 -0.0664761 -1.74987 -7.15007 -1.0402 -1.83834 
-8.24497 -2.11935 -1.74146 -4.0602 1.02953 -1.5422 -4.88978 0.16076 -1.76649 
-5.86794 -0.784788 -1.99922 -7.04813 -1.80422 -2.01229 -8.32819 -3.03749 -1.86264 
-2.80034 0.838908 -1.48409 -3.62136 0.117758 -1.66737 -4.60102 -0.773991 -1.94159 
-5.79436 -1.71537 -2.14893 -7.19121 -2.86319 -2.13541 -8.5389 -4.14294 -1.9746 
-1.80249 0.371567 -1.30327 -2.53681 -0.218871 -1.52271 -3.51777 -1.02563 -1.7447 
-4.64914 -1.87574 -1.98598 -6.02266 -2.82598 -2.13526 -7.46663 -4.02278 -2.13984 
-8.78294 -5.12403 -1.91355 -1.15813 -0.133098 -0.9469 -1.73209 -0.654337 -1.27029 
-2.67121 -1.37651 -1.51409 -3.76496 -2.17148 -1.71171 -5.00678 -2.91105 -1.85451 
-6.40953 -3.89546 -1.98565 -7.76279 -4.99961 -1.9908 -9.08502 -5.88953 -1.66764 
-0.948128 -1.44058 -0.340369 -1.41422 -2.44281 -0.147455 -1.57449 -2.00894 -0.735956 
-2.15309 -3.49246 0.04497 -2.18861 -3.08817 -0.571419 -2.53146 -2.7272 -1.09396 
-3.07396 -4.38515 0.228349 -2.99025 -4.09619 -0.393576 -3.21525 -3.72934 -0.949754 
-3.67048 -3.39589 -1.33544 -4.19046 -5.1742 0.469071 -3.99842 -4.96232 -0.151875 
-4.123 -4.66788 -0.729619 -4.48002 -4.35876 -1.17266 -4.95153 -4.06051 -1.44215 
[...]
POINT_DATA 1002
FIELD FieldData 4
_paraPhi 1 1002 double
6.2831853072 3.1415926536 6.2831853072 3.1415926536 4.7123889804 4.7123889804 1.5707963268 1.5707963268 3.6951670125 
5.7296109483 2.5880182947 0.5535743589 6.2831853072 6.2831853072 6.2831853072 6.2831853072 3.1415926536 3.1415926536 
3.1415926536 3.1415926536 3.1415926536 6.1053039672 5.898798347 5.6768734901 5.4599499503 5.2659633393 5.1032165617 
4.9713148346 4.8656852733 4.7809517865 0.17788134 0.38438696014 0.60631181711 0.82323535693 1.0172219679 1.1799687454 
1.3118704726 1.4175000338 1.5022335207 6.1892828907 6.1070320098 6.035312792 5.9728339911 5.9183214791 5.8706119594 
5.8286879411 5.7916808611 5.7588591896 0.093902416448 0.17615329733 0.2478725152 0.31035131605 0.36486382811 0.41257334776 
0.45449736604 0.4915044461 0.52432611754 3.3194739936 3.5259796137 3.7479044707 3.9648280105 4.1588146215 4.321561399 
4.4534631262 4.5590926874 4.6438261743 2.9637113136 2.7572056934 2.5352808365 2.3183572967 2.1243706857 1.9616239082 
1.829722181 1.7240926197 1.6393591329 3.23549507 3.3177459509 3.3894651688 3.4519439696 3.5064564817 3.5541660013 
3.5960900196 3.6330970997 3.6659187711 3.0476902371 2.9654393563 2.8937201384 2.8312413375 2.7767288255 2.7290193058 
2.6870952876 2.6500882075 2.617266536 6.2831853072 6.2831853072 6.2831853072 6.2831853072 3.1415926536 3.1415926536 
3.1415926536 3.1415926536 3.1415926536 6.1053039672 5.898798347 5.6768734901 5.4599499503 5.2659633393 5.1032165617 
4.9713148346 4.8656852733 4.7809517865 0.17788134 0.38438696014 0.60631181711 0.82323535693 1.0172219679 1.1799687454 
1.3118704726 1.4175000338 1.5022335207 6.1892828907 6.1070320098 6.035312792 5.9728339911 5.9183214791 5.8706119594 
5.8286879411 5.7916808611 5.7588591896 0.093902416448 0.17615329733 0.2478725152 0.31035131605 0.36486382811 0.41257334776 
0.45449736604 0.4915044461 0.52432611754 3.3194739936 3.5259796137 3.7479044707 3.9648280105 4.1588146215 4.321561399 
4.4534631262 4.5590926874 4.6438261743 2.9637113136 2.7572056934 2.5352808365 2.3183572967 2.1243706857 1.9616239082 
1.829722181 1.7240926197 1.6393591329 3.23549507 3.3177459509 3.3894651688 3.4519439696 3.5064564817 3.5541660013 
3.5960900196 3.6330970997 3.6659187711 3.0476902371 2.9654393563 2.8937201384 2.8312413375 2.7767288255 2.7290193058 
2.6870952876 2.6500882075 2.617266536 4.7123889804 4.7123889804 4.7123889804 4.7123889804 4.7123889804 4.7123889804 
4.7123889804 4.7123889804 4.7123889804 4.6087898617 4.4991390697 4.3857031936 4.2712800401 4.1588146215 4.0509635631 
3.94975894 3.8564636551 3.7716124825 4.8159880991 4.9256388911 5.0390747672 5.1534979207 5.2659633393 5.3738143976 
5.4750190208 5.5683143056 5.6531654782 4.6087898617 4.4991390697 4.3857031936 4.2712800401 4.1588146215 4.0509635631 
3.94975894 3.8564636551 3.7716124825 4.8159880991 4.9256388911 5.0390747672 5.1534979207 5.2659633393 5.3738143976 
5.4750190208 5.5683143056 5.6531654782 1.5707963268 1.5707963268 1.5707963268 1.5707963268 1.5707963268 1.5707963268 
1.5707963268 1.5707963268 1.5707963268 1.6743954455 1.7840462375 1.8974821136 2.0119052671 2.1243706857 2.232221744 
2.3334263672 2.426721652 2.5115728246 1.4671972081 1.3575464161 1.24411054 1.1296873865 1.0172219679 0.90937090954 
0.80816628637 0.71487100155 0.63001982895 1.6743954455 1.7840462375 1.8974821136 2.0119052671 2.1243706857 2.232221744 
2.3334263672 2.426721652 2.5115728246 1.4671972081 1.3575464161 1.24411054 1.1296873865 1.0172219679 0.90937090954 
0.80816628637 0.71487100155 0.63001982895 3.6007720849 3.4966939854 3.3839471039 3.2645756454 3.1415926536 3.0186096618 
2.8992382033 2.7864913217 2.6824132222 5.8240058758 5.9280839753 6.0408308569 6.1602023154 6.2831853072 0.12298299178 
0.2423544503 0.35510133185 0.45917943135 6.0560271438 5.7885595667 5.9702140275 5.5125918794 5.6029703303 5.7885595667 
5.2659633393 5.2659633393 5.2659633393 5.2659633393 5.0674903122 5.0120975802 4.9155579264 4.7123889804 4.1588146215 
4.9155579264 4.8353719722 4.7123889804 4.5092200343 4.1588146215 3.6362183941 4.8004512023 4.7123889804 4.5894059886 
4.4126803806 4.1588146215 3.8218076305 3.4545639333 4.7123889804 4.6243267584 4.5092200343 4.3572876485 4.1588146215 
3.9121860814 3.6362183941 3.368750817 6.0174235957 5.9434319871 5.8263323547 5.8809213739 5.7674481418 5.6279784266 
5.8278025282 5.718968232 5.5891129425 5.4372443565 5.7823484065 5.678536687 5.5575666702 5.4192596322 5.2659633393 
5.743164462 5.6444075337 5.5314983644 5.4046708639 5.2659633393 5.1195510325 5.7091357773 5.6152775188 5.5096229709 
5.3926039573 5.2659633393 5.1329233157 4.9978930058 5.6793730533 5.5901633916 5.4910209005 5.3824597928 5.2659633393 
5.1440684722 5.0201624502 4.8979782167 5.5683143056 5.4750190208 5.4750190208 5.3738143976 5.3738143976 5.3738143976 
5.2659633393 5.2659633393 5.2659633393 5.2659633393 5.1534979207 5.1534979207 5.1534979207 5.1534979207 5.1534979207 
5.0390747672 5.0390747672 5.0390747672 5.0390747672 5.0390747672 5.0390747672 4.9256388911 4.9256388911 4.9256388911 
4.9256388911 4.9256388911 4.9256388911 4.9256388911 4.8159880991 4.8159880991 4.8159880991 4.8159880991 4.8159880991 
4.8159880991 4.8159880991 4.8159880991 4.6087898617 4.6087898617 4.4991390697 4.6087898617 4.4991390697 4.3857031936 
4.6087898617 4.4991390697 4.3857031936 4.2712800401 4.6087898617 4.4991390697 4.3857031936 4.2712800401 4.1588146215 
4.6087898617 4.4991390697 4.3857031936 4.2712800401 4.1588146215 4.0509635631 4.6087898617 4.4991390697 4.3857031936 
4.2712800401 4.1588146215 4.0509635631 3.94975894 4.6087898617 4.4991390697 4.3857031936 4.2712800401 4.1588146215 
4.0509635631 3.94975894 3.8564636551 4.526799744 4.4046155105 4.426884955 4.2807094886 4.2918546451 4.3052269283 
4.1588146215 4.1588146215 4.1588146215 4.1588146215 4.042318168 4.0321740035 4.0201070968 4.0055183285 3.9875336042 
3.9337570603 3.9151549899 3.8932795963 3.8672112905 3.8356650183 3.7967995342 3.8346145692 3.809500442 3.7803704271 
3.7462412737 3.7058097288 3.657329819 3.5984456061 3.7454049075 3.7156421835 3.6816134988 3.6424295543 3.5969754326 
3.5438565869 3.4813459737 3.4073543651 3.5642842451 3.4524645613 3.5233842518 3.3320300872 3.403123212 3.4773852225 
3.20576226 3.2746326772 3.348015857 3.4255060145 3.0774230472 3.1415926536 3.2112816139 3.2864685043 3.3668817272 
2.95115522 3.00855263 3.0719036933 3.1415926536 3.2178377658 3.3005964304 2.8307207459 2.8800620952 2.9351694502 
2.9967168029 3.0653475414 3.1415926536 3.225752376 2.718901062 2.7598010554 2.8058000847 2.8576792927 2.91630358 
2.9825888767 3.0574329311 3.1415926536 3.5642842451 3.5233842518 3.4524645613 3.4773852225 3.403123212 3.3320300872 
3.4255060145 3.348015857 3.2746326772 3.20576226 3.3668817272 3.2864685043 3.2112816139 3.1415926536 3.0774230472 
3.3005964304 3.2178377658 3.1415926536 3.0719036933 3.00855263 2.95115522 3.225752376 3.1415926536 3.0653475414 
2.9967168029 2.9351694502 2.8800620952 2.8307207459 3.1415926536 3.0574329311 2.9825888767 2.91630358 2.8576792927 
2.8058000847 2.7598010554 2.718901062 4.526799744 4.426884955 4.4046155105 4.3052269283 4.2918546451 4.2807094886 
4.1588146215 4.1588146215 4.1588146215 4.1588146215 3.9875336042 4.0055183285 4.0201070968 4.0321740035 4.042318168 
3.7967995342 3.8356650183 3.8672112905 3.8932795963 3.9151549899 3.9337570603 3.5984456061 3.657329819 3.7058097288 
3.7462412737 3.7803704271 3.809500442 3.8346145692 3.4073543651 3.4813459737 3.5438565869 3.5969754326 3.6424295543 
3.6816134988 3.7156421835 3.7454049075 4.7123889804 4.8004512023 4.6243267584 4.9155579264 4.7123889804 4.5092200343 
5.0674903122 4.8353719722 4.5894059886 4.3572876485 5.2659633393 5.0120975802 4.7123889804 4.4126803806 4.1588146215 
5.5125918794 5.2659633393 4.9155579264 4.5092200343 4.1588146215 3.9121860814 5.7885595667 5.6029703303 5.2659633393 
4.7123889804 4.1588146215 3.8218076305 3.6362183941 6.0560271438 5.9702140275 5.7885595667 5.2659633393 4.1588146215 
3.6362183941 3.4545639333 3.368750817 0.22715816343 0.49462574053 0.3129712797 0.77059342779 0.68021497688 0.49462574053 
1.0172219679 1.0172219679 1.0172219679 1.0172219679 1.2156949949 1.271087727 1.3676273807 1.5707963268 2.1243706857 
1.3676273807 1.447813335 1.5707963268 1.7739652728 2.1243706857 2.6469669131 1.4827341049 1.5707963268 1.6937793186 
1.8705049266 2.1243706857 2.4613776767 2.8286213739 1.5707963268 1.6588585487 1.7739652728 1.9258976586 2.1243706857 
2.3709992258 2.6469669131 2.9144344902 1.7563855631 1.8785697967 1.8563003522 2.0024758186 1.9913306621 1.9779583789 
2.1243706857 2.1243706857 2.1243706857 2.1243706857 2.2408671392 2.2510113037 2.2630782103 2.2776669786 2.295651703 
2.3494282469 2.3680303173 2.3899057108 2.4159740166 2.4475202889 2.486385773 2.448570738 2.4736848652 2.5028148801 
2.5369440334 2.5773755784 2.6258554882 2.6847397011 2.5377803997 2.5675431237 2.6015718084 2.6407557529 2.6862098746 
2.7393287203 2.8018393335 2.8758309421 1.6743954455 1.6743954455 1.7840462375 1.6743954455 1.7840462375 1.8974821136 
1.6743954455 1.7840462375 1.8974821136 2.0119052671 1.6743954455 1.7840462375 1.8974821136 2.0119052671 2.1243706857 
1.6743954455 1.7840462375 1.8974821136 2.0119052671 2.1243706857 2.232221744 1.6743954455 1.7840462375 1.8974821136 
2.0119052671 2.1243706857 2.232221744 2.3334263672 1.6743954455 1.7840462375 1.8974821136 2.0119052671 2.1243706857 
2.232221744 2.3334263672 2.426721652 1.4671972081 1.3575464161 1.4671972081 1.24411054 1.3575464161 1.4671972081 
1.1296873865 1.24411054 1.3575464161 1.4671972081 1.0172219679 1.1296873865 1.24411054 1.3575464161 1.4671972081 
0.90937090954 1.0172219679 1.1296873865 1.24411054 1.3575464161 1.4671972081 0.80816628637 0.90937090954 1.0172219679 
1.1296873865 1.24411054 1.3575464161 1.4671972081 0.71487100155 0.80816628637 0.90937090954 1.0172219679 1.1296873865 
1.24411054 1.3575464161 1.4671972081 0.60381225391 0.57404952988 0.69302191562 0.54002084522 0.66790778838 0.79216440667 
0.50083690068 0.63877777351 0.77356233629 0.90072551443 0.45538277901 0.60464862014 0.75168694275 0.89058134991 1.0172219679 
0.40226393329 0.56421707518 0.72561863695 0.87851444325 1.0172219679 1.139116835 0.33975332011 0.51573716537 0.69407236469 
0.86392567495 1.0172219679 1.1502619915 1.2630228569 0.26576171152 0.45685295248 0.6552068806 0.84594095064 1.0172219679 
1.1636342747 1.2852923014 1.3852070904 0.22715816343 0.3129712797 0.49462574053 0.49462574053 0.68021497688 0.77059342779 
1.0172219679 1.0172219679 1.0172219679 1.0172219679 2.1243706857 1.5707963268 1.3676273807 1.271087727 1.2156949949 
2.6469669131 2.1243706857 1.7739652728 1.5707963268 1.447813335 1.3676273807 2.8286213739 2.4613776767 2.1243706857 
1.8705049266 1.6937793186 1.5707963268 1.4827341049 2.9144344902 2.6469669131 2.3709992258 2.1243706857 1.9258976586 
1.7739652728 1.6588585487 1.5707963268 1.7563855631 1.8563003522 1.8785697967 1.9779583789 1.9913306621 2.0024758186 
2.1243706857 2.1243706857 2.1243706857 2.1243706857 2.295651703 2.2776669786 2.2630782103 2.2510113037 2.2408671392 
2.486385773 2.4475202889 2.4159740166 2.3899057108 2.3680303173 2.3494282469 2.6847397011 2.6258554882 2.5773755784 
2.5369440334 2.5028148801 2.4736848652 2.448570738 2.8758309421 2.8018393335 2.7393287203 2.6862098746 2.6407557529 
2.6015718084 2.5675431237 2.5377803997 5.8604937156 5.901393709 5.9723133995 5.9473927383 6.0216547488 6.0927478736 
5.9992719463 6.0767621038 6.1501452836 6.2190157008 6.0578962336 6.1383094565 6.2134963469 0 0.064169606361 
6.1241815303 6.206940195 6.2831853072 0.069688960264 0.13304002361 0.19043743361 6.1990255847 0 0.07624511221 
0.14487585072 0.20642320337 0.26153055843 0.3108719077 0 0.084159722458 0.15900377685 0.22528907359 0.28391336087 
0.3357925689 0.38179159818 0.42269159155 5.8604937156 5.9723133995 5.901393709 6.0927478736 6.0216547488 5.9473927383 
6.2190157008 6.1501452836 6.0767621038 5.9992719463 0.064169606361 0 6.2134963469 6.1383094565 6.0578962336 
0.19043743361 0.13304002361 0.069688960264 6.2831853072 6.206940195 6.1241815303 0.3108719077 0.26153055843 0.20642320337 
0.14487585072 0.07624511221 6.2831853072 6.1990255847 0.42269159155 0.38179159818 0.3357925689 0.28391336087 0.22528907359 
0.15900377685 0.084159722458 0 5.6793730533 5.7091357773 5.5901633916 5.743164462 5.6152775188 5.4910209005 
5.7823484065 5.6444075337 5.5096229709 5.3824597928 5.8278025282 5.678536687 5.5314983644 5.3926039573 5.2659633393 
5.8809213739 5.718968232 5.5575666702 5.4046708639 5.2659633393 5.1440684722 5.9434319871 5.7674481418 5.5891129425 
5.4192596322 5.2659633393 5.1329233157 5.0201624502 6.0174235957 5.8263323547 5.6279784266 5.4372443565 5.2659633393 
5.1195510325 4.9978930058 4.8979782167 1.3852070904 1.2852923014 1.2630228569 1.1636342747 1.1502619915 1.139116835 
1.0172219679 1.0172219679 1.0172219679 1.0172219679 0.84594095064 0.86392567495 0.87851444325 0.89058134991 0.90072551443 
0.6552068806 0.69407236469 0.72561863695 0.75168694275 0.77356233629 0.79216440667 0.45685295248 0.51573716537 0.56421707518 
0.60464862014 0.63877777351 0.66790778838 0.69302191562 0.26576171152 0.33975332011 0.40226393329 0.45538277901 0.50083690068 
0.54002084522 0.57404952988 0.60381225391 
_paraPhiHalf 1 1002 double
0 3.1415926536 0 3.1415926536 1.5707963268 1.5707963268 1.5707963268 1.5707963268 2.5880182947 
0.5535743589 2.5880182947 0.5535743589 0 0 0 0 3.1415926536 3.1415926536 
3.1415926536 3.1415926536 3.1415926536 0.17788134 0.38438696014 0.60631181711 0.82323535693 1.0172219679 1.1799687454 
1.3118704726 1.4175000338 1.5022335207 0.17788134 0.38438696014 0.60631181711 0.82323535693 1.0172219679 1.1799687454 
1.3118704726 1.4175000338 1.5022335207 0.093902416448 0.17615329733 0.2478725152 0.31035131605 0.36486382811 0.41257334776 
0.45449736604 0.4915044461 0.52432611754 0.093902416448 0.17615329733 0.2478725152 0.31035131605 0.36486382811 0.41257334776 
0.45449736604 0.4915044461 0.52432611754 2.9637113136 2.7572056934 2.5352808365 2.3183572967 2.1243706857 1.9616239082 
1.829722181 1.7240926197 1.6393591329 2.9637113136 2.7572056934 2.5352808365 2.3183572967 2.1243706857 1.9616239082 
1.829722181 1.7240926197 1.6393591329 3.0476902371 2.9654393563 2.8937201384 2.8312413375 2.7767288255 2.7290193058 
2.6870952876 2.6500882075 2.617266536 3.0476902371 2.9654393563 2.8937201384 2.8312413375 2.7767288255 2.7290193058 
2.6870952876 2.6500882075 2.617266536 0 0 0 0 3.1415926536 3.1415926536 
3.1415926536 3.1415926536 3.1415926536 0.17788134 0.38438696014 0.60631181711 0.82323535693 1.0172219679 1.1799687454 
1.3118704726 1.4175000338 1.5022335207 0.17788134 0.38438696014 0.60631181711 0.82323535693 1.0172219679 1.1799687454 
1.3118704726 1.4175000338 1.5022335207 0.093902416448 0.17615329733 0.2478725152 0.31035131605 0.36486382811 0.41257334776 
0.45449736604 0.4915044461 0.52432611754 0.093902416448 0.17615329733 0.2478725152 0.31035131605 0.36486382811 0.41257334776 
0.45449736604 0.4915044461 0.52432611754 2.9637113136 2.7572056934 2.5352808365 2.3183572967 2.1243706857 1.9616239082 
1.829722181 1.7240926197 1.6393591329 2.9637113136 2.7572056934 2.5352808365 2.3183572967 2.1243706857 1.9616239082 
1.829722181 1.7240926197 1.6393591329 3.0476902371 2.9654393563 2.8937201384 2.8312413375 2.7767288255 2.7290193058 
2.6870952876 2.6500882075 2.617266536 3.0476902371 2.9654393563 2.8937201384 2.8312413375 2.7767288255 2.7290193058 
2.6870952876 2.6500882075 2.617266536 1.5707963268 1.5707963268 1.5707963268 1.5707963268 1.5707963268 1.5707963268 
1.5707963268 1.5707963268 1.5707963268 1.6743954455 1.7840462375 1.8974821136 2.0119052671 2.1243706857 2.232221744 
2.3334263672 2.426721652 2.5115728246 1.4671972081 1.3575464161 1.24411054 1.1296873865 1.0172219679 0.90937090954 
0.80816628637 0.71487100155 0.63001982895 1.6743954455 1.7840462375 1.8974821136 2.0119052671 2.1243706857 2.232221744 
2.3334263672 2.426721652 2.5115728246 1.4671972081 1.3575464161 1.24411054 1.1296873865 1.0172219679 0.90937090954 
0.80816628637 0.71487100155 0.63001982895 1.5707963268 1.5707963268 1.5707963268 1.5707963268 1.5707963268 1.5707963268 
1.5707963268 1.5707963268 1.5707963268 1.6743954455 1.7840462375 1.8974821136 2.0119052671 2.1243706857 2.232221744 
2.3334263672 2.426721652 2.5115728246 1.4671972081 1.3575464161 1.24411054 1.1296873865 1.0172219679 0.90937090954 
0.80816628637 0.71487100155 0.63001982895 1.6743954455 1.7840462375 1.8974821136 2.0119052671 2.1243706857 2.232221744 
2.3334263672 2.426721652 2.5115728246 1.4671972081 1.3575464161 1.24411054 1.1296873865 1.0172219679 0.90937090954 
0.80816628637 0.71487100155 0.63001982895 2.6824132222 2.7864913217 2.8992382033 3.0186096618 3.1415926536 3.0186096618 
2.8992382033 2.7864913217 2.6824132222 0.45917943135 0.35510133185 0.2423544503 0.12298299178 0 0.12298299178 
0.2423544503 0.35510133185 0.45917943135 0.22715816343 0.49462574053 0.3129712797 0.77059342779 0.68021497688 0.49462574053 
1.0172219679 1.0172219679 1.0172219679 1.0172219679 1.2156949949 1.271087727 1.3676273807 1.5707963268 2.1243706857 
1.3676273807 1.447813335 1.5707963268 1.7739652728 2.1243706857 2.6469669131 1.4827341049 1.5707963268 1.6937793186 
1.8705049266 2.1243706857 2.4613776767 2.8286213739 1.5707963268 1.6588585487 1.7739652728 1.9258976586 2.1243706857 
2.3709992258 2.6469669131 2.9144344902 0.26576171152 0.33975332011 0.45685295248 0.40226393329 0.51573716537 0.6552068806 
0.45538277901 0.56421707518 0.69407236469 0.84594095064 0.50083690068 0.60464862014 0.72561863695 0.86392567495 1.0172219679 
0.54002084522 0.63877777351 0.75168694275 0.87851444325 1.0172219679 1.1636342747 0.57404952988 0.66790778838 0.77356233629 
0.89058134991 1.0172219679 1.1502619915 1.2852923014 0.60381225391 0.69302191562 0.79216440667 0.90072551443 1.0172219679 
1.139116835 1.2630228569 1.3852070904 0.71487100155 0.80816628637 0.80816628637 0.90937090954 0.90937090954 0.90937090954 
1.0172219679 1.0172219679 1.0172219679 1.0172219679 1.1296873865 1.1296873865 1.1296873865 1.1296873865 1.1296873865 
1.24411054 1.24411054 1.24411054 1.24411054 1.24411054 1.24411054 1.3575464161 1.3575464161 1.3575464161 
1.3575464161 1.3575464161 1.3575464161 1.3575464161 1.4671972081 1.4671972081 1.4671972081 1.4671972081 1.4671972081 
1.4671972081 1.4671972081 1.4671972081 1.6743954455 1.6743954455 1.7840462375 1.6743954455 1.7840462375 1.8974821136 
1.6743954455 1.7840462375 1.8974821136 2.0119052671 1.6743954455 1.7840462375 1.8974821136 2.0119052671 2.1243706857 
1.6743954455 1.7840462375 1.8974821136 2.0119052671 2.1243706857 2.232221744 1.6743954455 1.7840462375 1.8974821136 
2.0119052671 2.1243706857 2.232221744 2.3334263672 1.6743954455 1.7840462375 1.8974821136 2.0119052671 2.1243706857 
2.232221744 2.3334263672 2.426721652 1.7563855631 1.8785697967 1.8563003522 2.0024758186 1.9913306621 1.9779583789 
2.1243706857 2.1243706857 2.1243706857 2.1243706857 2.2408671392 2.2510113037 2.2630782103 2.2776669786 2.295651703 
2.3494282469 2.3680303173 2.3899057108 2.4159740166 2.4475202889 2.486385773 2.448570738 2.4736848652 2.5028148801 
2.5369440334 2.5773755784 2.6258554882 2.6847397011 2.5377803997 2.5675431237 2.6015718084 2.6407557529 2.6862098746 
2.7393287203 2.8018393335 2.8758309421 2.718901062 2.8307207459 2.7598010554 2.95115522 2.8800620952 2.8058000847 
3.0774230472 3.00855263 2.9351694502 2.8576792927 3.0774230472 3.1415926536 3.0719036933 2.9967168029 2.91630358 
2.95115522 3.00855263 3.0719036933 3.1415926536 3.0653475414 2.9825888767 2.8307207459 2.8800620952 2.9351694502 
2.9967168029 3.0653475414 3.1415926536 3.0574329311 2.718901062 2.7598010554 2.8058000847 2.8576792927 2.91630358 
2.9825888767 3.0574329311 3.1415926536 2.718901062 2.7598010554 2.8307207459 2.8058000847 2.8800620952 2.95115522 
2.8576792927 2.9351694502 3.00855263 3.0774230472 2.91630358 2.9967168029 3.0719036933 3.1415926536 3.0774230472 
2.9825888767 3.0653475414 3.1415926536 3.0719036933 3.00855263 2.95115522 3.0574329311 3.1415926536 3.0653475414 