# vtk DataFile Version 5.1
vtk output
ASCII
DATASET POLYDATA
POINTS 100 float
-4.50549 3.66194 1.47836 -4.50866 3.66086 1.47633 -4.51834 3.65488 1.47362 
-4.53577 3.64217 1.47001 -4.56275 3.62001 1.46519 -4.60127 3.58522 1.45882 
-4.65315 3.53464 1.45065 -4.7197 3.46561 1.44057 -4.80148 3.37638 1.4287 
-4.8982 3.26632 1.4154 -5.00881 3.13599 1.40125 -5.13164 2.98699 1.38701 
-5.2648 2.82172 1.37348 -5.40644 2.64295 1.36143 -5.55513 2.45346 1.35142 
-5.71003 2.25565 1.3437 -5.87105 2.05127 1.33818 -6.03877 1.84133 1.33435 
-6.21429 1.62614 1.33136 -6.39896 1.40543 1.32809 -6.59413 1.17865 1.32331 
-6.80086 0.94523 1.31582 -7.01975 0.704844 1.3046 -7.25083 0.45755 1.28898 
-7.49361 0.203856 1.26866 -7.74715 -0.0553714 1.24376 -8.01026 -0.319084 1.21478 
-8.28167 -0.586303 1.18244 -8.56015 -0.856364 1.14757 -8.84467 -1.12911 1.11092 
-9.13437 -1.405 1.07304 -9.42852 -1.68503 1.03417 -9.7265 -1.97063 0.994169 
-10.0276 -2.26333 0.952599 -10.3312 -2.56451 0.908789 -10.6364 -2.87503 0.861985 
-10.9425 -3.19508 0.811507 -11.2487 -3.52406 0.756892 -11.5546 -3.86065 0.69799 
-11.8602 -4.20307 0.634992 -12.1659 -4.54945 0.568373 -12.4727 -4.89821 0.498772 
-12.7818 -5.24852 0.42681 -13.0947 -5.60055 0.352889 -13.4128 -5.9557 0.277014 
-13.737 -6.31643 0.19866 -14.0674 -6.68609 0.116728 -14.4031 -7.06842 0.0296027 
-14.7421 -7.46704 -0.0646976 -15.0814 -7.88484 -0.168287 -15.417 -8.32355 -0.283137 
-15.7444 -8.78335 -0.410794 -16.0589 -9.26279 -0.552145 -16.3562 -9.75894 -0.707257 
-16.6324 -10.2677 -0.875326 -16.8848 -10.7844 -1.05474 -17.1115 -11.3044 -1.24325 
-17.312 -11.8233 -1.43819 -17.4866 -12.3383 -1.63679 -17.6365 -12.8473 -1.83643 
-17.7633 -13.35 -2.03487 -17.8691 -13.847 -2.23043 -17.9558 -14.3399 -2.42199 
-18.0252 -14.8306 -2.609 -18.0792 -15.3207 -2.79136 -18.119 -15.8116 -2.96924 
-18.1461 -16.3035 -3.14291 -18.1615 -16.7958 -3.3126 -18.1664 -17.2872 -3.4783 
-18.1618 -17.7755 -3.63982 -18.1488 -18.2584 -3.79668 -18.1284 -18.7337 -3.94825 
-18.1016 -19.1994 -4.0938 -18.0692 -19.6544 -4.23262 -18.0321 -20.098 -4.36411 
-17.9909 -20.53 -4.48786 -17.9464 -20.9506 -4.60364 -17.8996 -21.36 -4.71142 
-17.8513 -21.7579 -4.8113 -17.8031 -22.1437 -4.90347 -17.7563 -22.516 -4.98816 
-17.7129 -22.8729 -5.06555 -17.6746 -23.212 -5.13582 -17.6432 -23.5311 -5.19909 
-17.6202 -23.8281 -5.25552 -17.6065 -24.1014 -5.3053 -17.6025 -24.3505 -5.34872 
-17.6078 -24.5757 -5.38618 -17.6212 -24.7781 -5.4182 -17.6413 -24.9596 -5.4454 
-17.6658 -25.1222 -5.46842 -17.6927 -25.2679 -5.48791 -17.7199 -25.3983 -5.50438 
-17.7456 -25.5141 -5.51825 -17.7685 -25.6154 -5.52974 -17.7876 -25.7013 -5.53894 
-17.8025 -25.7706 -5.54579 -17.8131 -25.8217 -5.55018 -17.8194 -25.853 -5.55199 
-17.8214 -25.8636 -5.55115 
LINES 2 100
OFFSETS vtktypeint64
0 100 
CONNECTIVITY vtktypeint64
0 1 2 3 4 5 6 7 8 
9 10 11 12 13 14 15 16 17 
18 19 20 21 22 23 24 25 26 
27 28 29 30 31 32 33 34 35 
36 37 38 39 40 41 42 43 44 
45 46 47 48 49 50 51 52 53 
54 55 56 57 58 59 60 61 62 
63 64 65 66 67 68 69 70 71 
72 73 74 75 76 77 78 79 80 
81 82 83 84 85 86 87 88 89 
90 91 92 93 94 95 96 97 98 
99 
POINT_DATA 100
FIELD FieldData 3
_theta 1 100 double
0 0.031733259127 0.063466518254 0.095199777382 0.12693303651 0.15866629564 0.19039955476 0.22213281389 0.25386607302 
0.28559933214 0.31733259127 0.3490658504 0.38079910953 0.41253236865 0.44426562778 0.47599888691 0.50773214603 0.53946540516 
0.57119866429 0.60293192342 0.63466518254 0.66639844167 0.6981317008 0.72986495992 0.76159821905 0.79333147818 0.82506473731 
0.85679799643 0.88853125556 0.92026451469 0.95199777382 0.98373103294 1.0154642921 1.0471975512 1.0789308103 1.1106640695 
1.1423973286 1.1741305877 1.2058638468 1.237597106 1.2693303651 1.3010636242 1.3327968833 1.3645301425 1.3962634016 
1.4279966607 1.4597299198 1.491463179 1.5231964381 1.5549296972 1.5866629564 1.6183962155 1.6501294746 1.6818627337 
1.7135959929 1.745329252 1.7770625111 1.8087957702 1.8405290294 1.8722622885 1.9039955476 1.9357288068 1.9674620659 
1.999195325 2.0309285841 2.0626618433 2.0943951024 2.1261283615 2.1578616206 2.1895948798 2.2213281389 2.253061398 
2.2847946572 2.3165279163 2.3482611754 2.3799944345 2.4117276937 2.4434609528 2.4751942119 2.506927471 2.5386607302 
2.5703939893 2.6021272484 2.6338605076 2.6655937667 2.6973270258 2.7290602849 2.7607935441 2.7925268032 2.8242600623 
2.8559933214 2.8877265806 2.9194598397 2.9511930988 2.982926358 3.0146596171 3.0463928762 3.0781261353 3.1098593945 
3.1415926536 
_radius 1 100 double
1.0379249364e-14 0.29666431661 0.59213032236 0.88519094154 1.1747284923 1.4597296563 1.7392700849 2.0124735066 2.2784603514 
2.5363065014 2.7850302123 3.0236151592 3.2510649049 3.4664750404 3.6691069579 3.8584502651 4.0342652295 4.1965992667 
4.3457722732 4.482326982 4.6069451834 4.7203391466 4.8231373878 4.9157904847 4.9985218976 5.0713397774 5.1341112415 
5.1866853154 5.2290386938 5.2614115702 5.284399421 5.2989711499 5.3063951406 5.3080726396 5.3053003472 5.2990059275 
5.2895141031 5.2764008731 5.2584778155 5.2339224467 5.2005428583 5.1561421303 5.098932159 5.0279362787 4.9433154579 
4.846557189 4.7404837448 4.6290682755 4.5170878926 4.4096798936 4.3118838841 4.22823693 4.1624472874 4.1171330449 
4.0936061558 4.0917153149 4.1098079778 4.1448877613 4.1929881268 4.2496801966 4.3105723419 4.3716911841 4.4297131091 
4.4820752751 4.527010822 4.563537507 4.5914047307 4.6109877862 4.6231189051 4.6288621182 4.6292634614 4.6251243272 
4.616841693 4.6043344214 4.5870433123 4.5639728981 4.5337460306 4.4946631744 4.4447800977 4.3820241229 4.3043557795 
4.209958724 4.0974215295 3.9658717822 3.8150369267 3.6452290274 3.4572700722 3.2523823166 3.0320640904 2.7979622896 
2.5517473721 2.2949995106 2.0291223209 1.7553046678 1.4745444037 1.1877305484 0.89575963811 0.59964759494 0.30059773429 
1.3215901088e-14 
_area 1 100 double
0 0.23990132655 0.95716693434 2.1441179825 3.7869266724 5.8645503227 8.3478265986 11.19891807 14.37136454 
17.811251202 21.460079314 25.259442831 29.156534215 33.108382669 37.082559751 41.053562036 44.996598891 48.882188055 
52.674348628 56.332855121 59.817834812 63.094239482 66.13440172 68.918223979 71.431731787 73.665311822 75.61291386 
77.272970807 78.650933189 79.762312077 80.634388427 81.304888009 81.817173904 82.213088201 82.525242061 82.770131555 
82.942936707 83.014812323 82.933476123 82.627596414 82.015195375 81.016211644 79.568853902 77.647623613 75.278360224 
72.544291603 69.578642377 66.543915262 63.603793661 60.897774326 58.527578026 56.55765037 55.025184126 53.951666349 
53.346423474 53.19780182 53.462671981 54.069836805 54.933836872 55.964460343 57.068811451 58.15237147 59.123438127 
59.90069153 60.42190124 60.652004215 60.589637272 60.270759231 59.76553861 59.164212369 58.552669891 57.986287919 
57.474531751 56.98412416 56.456757755 55.828201351 55.038573673 54.034128081 52.767078277 51.198168808 49.301665705 
47.069430421 44.511467491 41.653181979 38.531693779 35.193378242 31.693060144 28.093670593 24.464755144 20.87907269 
17.407963788 14.117180063 11.064746106 8.3012614039 5.8716692894 3.8168698395 2.173979268 0.97507622515 0.24512847663 
2.7256902353e-13 
