# vtk DataFile Version 5.1
vtk output
ASCII
DATASET POLYDATA
POINTS 1002 float
-10.6505 0.0710748 -1.63792 -20.0858 -15.0813 -2.61404 -8.56182 -2.44574 4.49245 
-17.8656 -15.7699 2.61927 -11.9014 -7.61572 -2.20668 -11.0731 -8.87295 1.35951 
-18.924 -4.87305 0.954536 -18.5428 -6.12073 5.15549 -15.1942 -26.0808 -2.08781 
-0.830851 -0.415421 0.162963 -23.3969 -19.8064 0.390745 -10.3553 4.33578 2.96307 
-11.4449 -0.769095 -1.67466 -12.3836 -1.75414 -1.71303 -13.4654 -2.90267 -1.75868 
-14.6704 -4.28782 -1.79522 -15.9639 -5.99169 -1.79898 -17.2005 -7.98873 -1.81697 
-18.2253 -10.087 -1.94288 -19.0354 -12.0217 -2.18062 -19.6621 -13.6662 -2.43235 
-10.4432 -0.331405 -1.89672 -10.2417 -0.798448 -2.19627 -9.98699 -1.36412 -2.42904 
-9.76108 -2.11642 -2.53576 -9.73244 -3.05285 -2.67222 -9.89653 -4.00526 -2.89325 
-10.1793 -4.86674 -2.95002 -10.6241 -5.73017 -2.7356 -11.2348 -6.67156 -2.4383 
-11.3942 -0.0670256 -1.42853 -12.2963 -0.279262 -1.2137 -13.303 -0.601647 -0.971413 
-14.2682 -1.04956 -0.683988 -15.1752 -1.57558 -0.373276 -16.0908 -2.15441 -0.0737254 
-16.9483 -2.82756 0.21135 -17.6738 -3.56621 0.487283 -18.3158 -4.2652 0.739225 
-9.69039 0.610597 -1.73815 -8.50378 1.11033 -1.80301 -7.13016 1.50491 -1.79215 
-5.71572 1.7404 -1.68634 -4.30596 1.79493 -1.54738 -2.97672 1.65904 -1.4456 
-1.95029 1.32384 -1.26682 -1.30692 0.812165 -0.869541 -0.953681 0.199871 -0.337908 
-10.3619 0.780812 -1.46015 -10.1163 1.48125 -1.2277 -9.90957 2.15151 -0.905934 
-9.78305 2.78273 -0.499774 -9.75591 3.35645 -0.0236716 -9.77449 3.84716 0.502109 
-9.84469 4.21422 1.06127 -10.0098 4.41626 1.68181 -10.2098 4.44895 2.34882 
-19.6265 -15.0109 -2.74703 -19.062 -14.8433 -2.804 -18.4202 -14.4998 -2.78041 
-17.6955 -13.8823 -2.74581 -16.9042 -12.9997 -2.6944 -16.1316 -11.92 -2.52124 
-15.3089 -10.6781 -2.27091 -14.2643 -9.40942 -2.12359 -13.0564 -8.34759 -2.13173 
-20.2615 -14.2145 -2.36363 -20.3992 -13.1551 -2.10781 -20.4803 -11.9307 -1.82763 
-20.4165 -10.72 -1.46421 -20.2187 -9.62017 -1.01242 -20.0053 -8.53358 -0.557389 
-19.7883 -7.44068 -0.16951 -19.5133 -6.45754 0.189131 -19.2079 -5.61843 0.57155 
-20.06 -16.5094 -2.83158 -19.8121 -18.1974 -3.00968 -19.4035 -19.9755 -3.18757 
-18.9382 -21.5282 -3.39072 -18.375 -22.9289 -3.54529 -17.6685 -24.4023 -3.61718 
-16.9151 -25.6406 -3.58939 -16.1972 -26.2582 -3.31547 -15.587 -26.3313 -2.75009 
-20.5021 -15.9473 -2.57231 -20.8797 -16.8249 -2.49281 -21.3006 -17.6522 -2.41437 
-21.753 -18.391 -2.27343 -22.0941 -19.0425 -1.972 -22.3589 -19.579 -1.59829 
-22.7212 -19.9434 -1.25595 -23.1141 -20.1108 -0.834142 -23.3479 -20.0656 -0.250825 
-9.45595 -3.26517 4.5942 -10.421 -4.26808 4.73039 -11.4722 -5.4136 4.78076 
-12.6668 -6.63792 4.62463 -13.9637 -8.01266 4.34677 -15.2039 -9.57435 4.01714 
-16.2481 -11.1806 3.57964 -17.0241 -12.7633 3.13515 -17.5348 -14.3279 2.83155 
-8.44855 -2.97406 4.3098 -8.38127 -3.59707 4.10893 -8.42311 -4.25416 3.8301 
-8.57626 -4.88559 3.47971 -8.82897 -5.53954 3.10565 -9.17532 -6.25388 2.72138 
-9.56846 -6.96211 2.357 -9.99615 -7.63114 2.03174 -10.5012 -8.27597 1.70495 
-9.19964 -2.45914 4.77152 -9.82871 -2.52069 5.11514 -10.575 -2.59786 5.40524 
-11.6655 -2.75773 5.49517 -13.0473 -3.12964 5.4427 -14.3999 -3.73872 5.44346 
-15.6243 -4.46579 5.51612 -16.7839 -5.14437 5.51861 -17.7884 -5.68699 5.38362 
-7.59868 -2.02483 4.27809 -6.60311 -1.6369 3.98318 -5.64188 -1.26488 3.57307 
-4.67738 -0.93466 3.11452 -3.67227 -0.68111 2.68115 -2.70951 -0.501993 2.27758 
-1.89084 -0.406545 1.86523 -1.27 -0.39515 1.37385 -0.904735 -0.413952 0.779965 
-8.10913 -1.64317 4.56489 -7.72256 -0.713041 4.60242 -7.50155 0.32045 4.54904 
-7.48599 1.34088 4.42596 -7.64219 2.29243 4.27574 -7.92297 3.15081 4.10588 
-8.35656 3.79748 3.91602 -8.99077 4.17392 3.67638 -9.72065 4.33748 3.35127 
-17.418 -15.4448 2.50184 -16.9463 -14.9822 2.36269 -16.4354 -14.3833 2.2528 
-15.8586 -13.6456 2.16626 -15.1922 -12.7781 2.05758 -14.444 -11.8321 1.96186 
-13.6307 -10.9105 1.8963 -12.7626 -10.1121 1.78217 -11.8876 -9.44842 1.58927 
-18.1437 -15.1382 2.84578 -18.4397 -14.3843 3.10213 -18.7217 -13.5478 3.41517 
-18.9284 -12.6573 3.76341 -19.0447 -11.6853 4.10803 -19.1096 -10.6123 4.42055 
-19.0996 -9.4812 4.68983 -18.9743 -8.32784 4.91699 -18.7717 -7.18339 5.08154 
-17.8473 -16.9544 2.28872 -17.7797 -18.142 1.81796 -17.6286 -19.4211 1.33529 
-17.3307 -20.8611 0.984319 -16.9115 -22.2781 0.608539 -16.4848 -23.5087 0.112973 
-16.0659 -24.5882 -0.302644 -15.6344 -25.4453 -0.703113 -15.3044 -25.9404 -1.33028 
-18.3372 -16.7324 2.51723 -18.8776 -17.6197 2.36396 -19.4799 -18.4303 2.23732 
-20.163 -19.1444 2.16221 -20.9365 -19.6597 2.03963 -21.6962 -19.9552 1.8483 
-22.3502 -20.1336 1.63644 -22.8874 -20.215 1.33695 -23.2501 -20.1208 0.894433 
-11.6596 -7.81607 -2.0977 -11.4534 -7.99098 -1.88853 -11.2421 -8.15128 -1.60692 
-11.0138 -8.32456 -1.32158 -10.8584 -8.49747 -0.975257 -10.8298 -8.62543 -0.479843 
-10.8628 -8.71172 0.0714919 -10.9082 -8.79196 0.557299 -10.9741 -8.85684 0.978556 
-13.2365 -9.09246 -2.02786 -14.379 -11.043 -2.01475 -15.0773 -13.4333 -2.14943 
-15.3202 -16.0123 -2.39149 -15.3035 -18.4016 -2.66238 -15.2719 -20.5226 -2.7985 
-15.2651 -22.5383 -2.7903 -15.1699 -24.2929 -2.73121 -15.0751 -25.4752 -2.52948 
-10.3879 -6.62024 -2.42481 -8.931 -5.81206 -2.54367 -7.56201 -5.00928 -2.41302 
-6.19177 -4.19151 -2.12698 -4.84892 -3.45331 -1.82823 -3.65088 -2.75828 -1.4848 
-2.61606 -2.0857 -1.1035 -1.73466 -1.50248 -0.735531 -1.10421 -0.972284 -0.322677 
-12.1701 -9.86482 1.12507 -13.2145 -11.1452 0.825169 -14.0756 -12.8875 0.457664 
-14.7032 -15.104 0.0485609 -14.9883 -17.5328 -0.327108 -14.9594 -19.9204 -0.679757 
-14.8773 -22.1338 -1.07477 -14.8578 -23.9694 -1.46276 -14.919 -25.2704 -1.78871 
-9.8899 -7.97445 1.29917 -8.66434 -7.0679 1.15192 -7.406 -6.20023 0.957257 
-6.02436 -5.4131 0.827637 -4.57811 -4.6899 0.78775 -3.31462 -3.96302 0.710831 
-2.31901 -3.16997 0.552267 -1.53593 -2.29746 0.403632 -1.0209 -1.36676 0.291365 
-19.125 -4.77787 1.32118 -19.2849 -4.69321 1.73228 -19.3744 -4.64743 2.23818 
-19.4492 -4.64769 2.85898 -19.4769 -4.72168 3.46834 -19.3172 -4.90928 3.93514 
-19.0503 -5.17204 4.31026 -18.87 -5.45199 4.66706 -18.7429 -5.76377 4.96468 
-19.7275 -5.92444 0.914156 -20.5656 -7.0855 0.859762 -21.3694 -8.36161 0.793165 
-22.1882 -9.67699 0.695124 -22.9565 -11.0021 0.563975 -23.3415 -12.5717 0.425443 
-23.3104 -14.578 0.296231 -23.2668 -16.7265 0.216467 -23.3667 -18.5314 0.248809 
-18.2752 -3.74958 1.19782 -17.6064 -2.52792 1.4287 -16.8886 -1.26834 1.65076 
-16.0891 -0.0248566 1.86105 -15.2512 1.13002 2.04028 -14.3533 2.11959 2.2306 
-13.335 2.91559 2.47212 -12.2997 3.52482 2.69848 -11.3285 3.98505 2.85533 
-19.3606 -7.18728 4.85886 -20.2837 -8.38751 4.52226 -21.2625 -9.72131 4.15842 
-22.1311 -11.0831 3.80413 -22.8019 -12.4192 3.43606 -23.2229 -13.857 2.9195 
-23.3389 -15.4801 2.24815 -23.3199 -17.1504 1.56546 -23.3632 -18.6408 0.943972 
-17.88 -4.80748 5.31446 -17.1383 -3.36432 5.4196 -16.2975 -1.81639 5.48176 
-15.4102 -0.254786 5.49649 -14.5596 1.09033 5.37439 -13.7018 2.06066 5.01453 
-12.7872 2.78178 4.48618 -11.9011 3.40308 3.95135 -11.0994 3.92556 3.45635 
-15.8501 -26.5533 -1.87257 -16.9233 -26.6856 -1.55624 -18.0737 -26.3866 -1.23894 
-19.0578 -25.7329 -0.985792 -20.0083 -24.9331 -0.745398 -20.9598 -24.0352 -0.467841 
-21.8115 -23.0317 -0.19807 -22.5813 -22.0126 0.0182713 -23.1627 -20.973 0.199059 
-0.913181 0.617159 0.38992 -1.29839 1.74002 0.613565 -1.87335 2.73479 0.804673 
-2.68566 3.46826 0.986076 -3.87006 4.00947 1.2161 -5.23813 4.49426 1.52192 
-6.56161 4.88109 1.90061 -7.88526 4.97176 2.3102 -9.19487 4.72965 2.67594 
-11.3303 -1.23705 -1.96401 -11.2303 -1.75524 -2.29371 -12.3328 -2.27937 -2.00899 
-11.0996 -2.40795 -2.51487 -12.3198 -2.86554 -2.32188 -13.4877 -3.51647 -2.02061 
-11.0472 -3.28907 -2.60495 -12.3674 -3.6681 -2.49123 -13.6039 -4.27753 -2.24471 
-14.8428 -5.1124 -1.98795 -11.1685 -4.29033 -2.7122 -12.5693 -4.73045 -2.51691 
-13.874 -5.36935 -2.30224 -15.12 -6.23379 -2.09127 -16.2799 -7.1698 -1.94111 
-11.4332 -5.2335 -2.76503 -12.8989 -5.85157 -2.50087 -14.2816 -6.68961 -2.26306 
-15.4935 -7.67735 -2.09769 -16.5993 -8.67133 -2.02983 -17.5149 -9.48738 -1.99501 
-11.8674 -6.17542 -2.59226 -13.3115 -6.9527 -2.40294 -14.6845 -8.00106 -2.25933 
-15.8445 -9.15221 -2.17664 -16.8635 -10.24 -2.16884 -17.7413 -11.0938 -2.21111 
-18.4445 -11.6594 -2.21891 -12.4585 -7.23885 -2.31601 -13.806 -8.15123 -2.23237 
-15.0339 -9.32045 -2.27085 -16.0504 -10.5358 -2.36933 -16.9704 -11.6472 -2.4353 
-17.8178 -12.5408 -2.49078 -18.5362 -13.131 -2.53576 -19.1421 -13.4717 -2.5157 
-9.35318 0.189649 -1.9997 -8.01192 0.639526 -2.02789 -8.98158 -0.327405 -2.25219 
-6.55211 0.948888 -1.95498 -7.52942 0.0245144 -2.21204 -8.60619 -1.00029 -2.4068 
-5.10888 1.06727 -1.80269 -6.08142 0.180207 -2.09788 -7.18686 -0.802749 -2.35203 
-8.43057 -1.89237 -2.52434 -3.73559 0.963506 -1.67118 -4.71143 0.120002 -1.95251 
-5.85684 -0.811755 -2.27449 -7.18943 -1.81561 -2.52563 -8.57049 -2.92006 -2.7522 
-2.60148 0.642058 -1.54833 -3.51724 -0.135146 -1.80548 -4.62672 -0.986702 -2.13218 
-6.00311 -1.87512 -2.42665 -7.51376 -2.87374 -2.70542 -8.86836 -3.90594 -2.95805 
-1.82792 0.163437 -1.26084 -2.65688 -0.531693 -1.55591 -3.65833 -1.29028 -1.88206 
-4.90946 -2.06811 -2.18849 -6.44719 -2.925 -2.45252 -7.92925 -3.89058 -2.76127 
-9.22527 -4.81123 -2.91845 -1.34624 -0.396351 -0.800373 -2.09172 -1.00001 -1.15744 
-3.02874 -1.6725 -1.50532 -4.12412 -2.393 -1.85781 -5.49028 -3.1364 -2.13639 
-6.98954 -3.98302 -2.4252 -8.36805 -4.87224 -2.68893 -9.72354 -5.71614 -2.68915 
-1.44767 -1.91894 -0.217453 -2.07161 -2.88557 -0.128873 -2.20724 -2.46542 -0.664388 
-2.93674 -3.83302 0.0398799 -2.94306 -3.48599 -0.592748 -3.23567 -3.08854 -1.07063 
-4.06763 -4.68098 0.252522 -3.94885 -4.45696 -0.398814 -4.14479 -4.09241 -0.993685 
-4.45121 -3.76585 -1.46471 -5.44727 -5.4403 0.378031 -5.17093 -5.32843 -0.176319 
-5.2505 -5.0238 -0.801367 -5.46506 -4.73096 -1.38539 -5.74054 -4.48111 -1.82939 
[...]
POINT_DATA 1002
FIELD FieldData 4
_paraPhi 1 1002 double
6.2831853072 3.1415926536 6.2831853072 3.1415926536 4.7123889804 4.7123889804 1.5707963268 1.5707963268 3.6951670125 
5.7296109483 2.5880182947 0.5535743589 6.2831853072 6.2831853072 6.2831853072 6.2831853072 3.1415926536 3.1415926536 
3.1415926536 3.1415926536 3.1415926536 6.1053039672 5.898798347 5.6768734901 5.4599499503 5.2659633393 5.1032165617 
4.9713148346 4.8656852733 4.7809517865 0.17788134 0.38438696014 0.60631181711 0.82323535693 1.0172219679 1.1799687454 
1.3118704726 1.4175000338 1.5022335207 6.1892828907 6.1070320098 6.035312792 5.9728339911 5.9183214791 5.8706119594 
5.8286879411 5.7916808611 5.7588591896 0.093902416448 0.17615329733 0.2478725152 0.31035131605 0.36486382811 0.41257334776 
0.45449736604 0.4915044461 0.52432611754 3.3194739936 3.5259796137 3.7479044707 3.9648280105 4.1588146215 4.321561399 
4.4534631262 4.5590926874 4.6438261743 2.9637113136 2.7572056934 2.5352808365 2.3183572967 2.1243706857 1.9616239082 
1.829722181 1.7240926197 1.6393591329 3.23549507 3.3177459509 3.3894651688 3.4519439696 3.5064564817 3.5541660013 
3.5960900196 3.6330970997 3.6659187711 3.0476902371 2.9654393563 2.8937201384 2.8312413375 2.7767288255 2.7290193058 
2.6870952876 2.6500882075 2.617266536 6.2831853072 6.2831853072 6.2831853072 6.2831853072 3.1415926536 3.1415926536 
3.1415926536 3.1415926536 3.1415926536 6.1053039672 5.898798347 5.6768734901 5.4599499503 5.2659633393 5.1032165617 
4.9713148346 4.8656852733 4.7809517865 0.17788134 0.38438696014 0.60631181711 0.82323535693 1.0172219679 1.1799687454 
1.3118704726 1.4175000338 1.5022335207 6.1892828907 6.1070320098 6.035312792 5.9728339911 5.9183214791 5.8706119594 
5.8286879411 5.7916808611 5.7588591896 0.093902416448 0.17615329733 0.2478725152 0.31035131605 0.36486382811 0.41257334776 
0.45449736604 0.4915044461 0.52432611754 3.3194739936 3.5259796137 3.7479044707 3.9648280105 4.1588146215 4.321561399 
4.4534631262 4.5590926874 4.6438261743 2.9637113136 2.7572056934 2.5352808365 2.3183572967 2.1243706857 1.9616239082 
1.829722181 1.7240926197 1.6393591329 3.23549507 3.3177459509 3.3894651688 3.4519439696 3.5064564817 3.5541660013 
3.5960900196 3.6330970997 3.6659187711 3.0476902371 2.9654393563 2.8937201384 2.8312413375 2.7767288255 2.7290193058 
2.6870952876 2.6500882075 2.617266536 4.7123889804 4.7123889804 4.7123889804 4.7123889804 4.7123889804 4.7123889804 
4.7123889804 4.7123889804 4.7123889804 4.6087898617 4.4991390697 4.3857031936 4.2712800401 4.1588146215 4.0509635631 
3.94975894 3.8564636551 3.7716124825 4.8159880991 4.9256388911 5.0390747672 5.1534979207 5.2659633393 5.3738143976 
5.4750190208 5.5683143056 5.6531654782 4.6087898617 4.4991390697 4.3857031936 4.2712800401 4.1588146215 4.0509635631 
3.94975894 3.8564636551 3.7716124825 4.8159880991 4.9256388911 5.0390747672 5.1534979207 5.2659633393 5.3738143976 
5.4750190208 5.5683143056 5.6531654782 1.5707963268 1.5707963268 1.5707963268 1.5707963268 1.5707963268 1.5707963268 
1.5707963268 1.5707963268 1.5707963268 1.6743954455 1.7840462375 1.8974821136 2.0119052671 2.1243706857 2.232221744 
2.3334263672 2.426721652 2.5115728246 1.4671972081 1.3575464161 1.24411054 1.1296873865 1.0172219679 0.90937090954 
0.80816628637 0.71487100155 0.63001982895 1.6743954455 1.7840462375 1.8974821136 2.0119052671 2.1243706857 2.232221744 
2.3334263672 2.426721652 2.5115728246 1.4671972081 1.3575464161 1.24411054 1.1296873865 1.0172219679 0.90937090954 
0.80816628637 0.71487100155 0.63001982895 3.6007720849 3.4966939854 3.3839471039 3.2645756454 3.1415926536 3.0186096618 
2.8992382033 2.7864913217 2.6824132222 5.8240058758 5.9280839753 6.0408308569 6.1602023154 6.2831853072 0.12298299178 
0.2423544503 0.35510133185 0.45917943135 6.0560271438 5.7885595667 5.9702140275 5.5125918794 5.6029703303 5.7885595667 
5.2659633393 5.2659633393 5.2659633393 5.2659633393 5.0674903122 5.0120975802 4.9155579264 4.7123889804 4.1588146215 
4.9155579264 4.8353719722 4.7123889804 4.5092200343 4.1588146215 3.6362183941 4.8004512023 4.7123889804 4.5894059886 
4.4126803806 4.1588146215 3.8218076305 3.4545639333 4.7123889804 4.6243267584 4.5092200343 4.3572876485 4.1588146215 
3.9121860814 3.6362183941 3.368750817 6.0174235957 5.9434319871 5.8263323547 5.8809213739 5.7674481418 5.6279784266 
5.8278025282 5.718968232 5.5891129425 5.4372443565 5.7823484065 5.678536687 5.5575666702 5.4192596322 5.2659633393 
5.743164462 5.6444075337 5.5314983644 5.4046708639 5.2659633393 5.1195510325 5.7091357773 5.6152775188 5.5096229709 
5.3926039573 5.2659633393 5.1329233157 4.9978930058 5.6793730533 5.5901633916 5.4910209005 5.3824597928 5.2659633393 
5.1440684722 5.0201624502 4.8979782167 5.5683143056 5.4750190208 5.4750190208 5.3738143976 5.3738143976 5.3738143976 
5.2659633393 5.2659633393 5.2659633393 5.2659633393 5.1534979207 5.1534979207 5.1534979207 5.1534979207 5.1534979207 
5.0390747672 5.0390747672 5.0390747672 5.0390747672 5.0390747672 5.0390747672 4.9256388911 4.9256388911 4.9256388911 
4.9256388911 4.9256388911 4.9256388911 4.9256388911 4.8159880991 4.8159880991 4.8159880991 4.8159880991 4.8159880991 
4.8159880991 4.8159880991 4.8159880991 4.6087898617 4.6087898617 4.4991390697 4.6087898617 4.4991390697 4.3857031936 
4.6087898617 4.4991390697 4.3857031936 4.2712800401 4.6087898617 4.4991390697 4.3857031936 4.2712800401 4.1588146215 
4.6087898617 4.4991390697 4.3857031936 4.2712800401 4.1588146215 4.0509635631 4.6087898617 4.4991390697 4.3857031936 
4.2712800401 4.1588146215 4.0509635631 3.94975894 4.6087898617 4.4991390697 4.3857031936 4.2712800401 4.1588146215 
4.0509635631 3.94975894 3.8564636551 4.526799744 4.4046155105 4.426884955 4.2807094886 4.2918546451 4.3052269283 
4.1588146215 4.1588146215 4.1588146215 4.1588146215 4.042318168 4.0321740035 4.0201070968 4.0055183285 3.9875336042 
3.9337570603 3.9151549899 3.8932795963 3.8672112905 3.8356650183 3.7967995342 3.8346145692 3.809500442 3.7803704271 
3.7462412737 3.7058097288 3.657329819 3.5984456061 3.7454049075 3.7156421835 3.6816134988 3.6424295543 3.5969754326 
3.5438565869 3.4813459737 3.4073543651 3.5642842451 3.4524645613 3.5233842518 3.3320300872 3.403123212 3.4773852225 
3.20576226 3.2746326772 3.348015857 3.4255060145 3.0774230472 3.1415926536 3.2112816139 3.2864685043 3.3668817272 
2.95115522 3.00855263 3.0719036933 3.1415926536 3.2178377658 3.3005964304 2.8307207459 2.8800620952 2.9351694502 
2.9967168029 3.0653475414 3.1415926536 3.225752376 2.718901062 2.7598010554 2.8058000847 2.8576792927 2.91630358 
2.9825888767 3.0574329311 3.1415926536 3.5642842451 3.5233842518 3.4524645613 3.4773852225 3.403123212 3.3320300872 
3.4255060145 3.348015857 3.2746326772 3.20576226 3.3668817272 3.2864685043 3.2112816139 3.1415926536 3.0774230472 
3.3005964304 3.2178377658 3.1415926536 3.0719036933 3.00855263 2.95115522 3.225752376 3.1415926536 3.0653475414 
2.9967168029 2.9351694502 2.8800620952 2.8307207459 3.1415926536 3.0574329311 2.9825888767 2.91630358 2.8576792927 
2.8058000847 2.7598010554 2.718901062 4.526799744 4.426884955 4.4046155105 4.3052269283 4.2918546451 4.2807094886 
4.1588146215 4.1588146215 4.1588146215 4.1588146215 3.9875336042 4.0055183285 4.0201070968 4.0321740035 4.042318168 
3.7967995342 3.8356650183 3.8672112905 3.8932795963 3.9151549899 3.9337570603 3.5984456061 3.657329819 3.7058097288 
3.7462412737 3.7803704271 3.809500442 3.8346145692 3.4073543651 3.4813459737 3.5438565869 3.5969754326 3.6424295543 
3.6816134988 3.7156421835 3.7454049075 4.7123889804 4.8004512023 4.6243267584 4.9155579264 4.7123889804 4.5092200343 
5.0674903122 4.8353719722 4.5894059886 4.3572876485 5.2659633393 5.0120975802 4.7123889804 4.4126803806 4.1588146215 
5.5125918794 5.2659633393 4.9155579264 4.5092200343 4.1588146215 3.9121860814 5.7885595667 5.6029703303 5.2659633393 
4.7123889804 4.1588146215 3.8218076305 3.6362183941 6.0560271438 5.9702140275 5.7885595667 5.2659633393 4.1588146215 
3.6362183941 3.4545639333 3.368750817 0.22715816343 0.49462574053 0.3129712797 0.77059342779 0.68021497688 0.49462574053 
1.0172219679 1.0172219679 1.0172219679 1.0172219679 1.2156949949 1.271087727 1.3676273807 1.5707963268 2.1243706857 
1.3676273807 1.447813335 1.5707963268 1.7739652728 2.1243706857 2.6469669131 1.4827341049 1.5707963268 1.6937793186 
1.8705049266 2.1243706857 2.4613776767 2.8286213739 1.5707963268 1.6588585487 1.7739652728 1.9258976586 2.1243706857 
2.3709992258 2.6469669131 2.9144344902 1.7563855631 1.8785697967 1.8563003522 2.0024758186 1.9913306621 1.9779583789 
2.1243706857 2.1243706857 2.1243706857 2.1243706857 2.2408671392 2.2510113037 2.2630782103 2.2776669786 2.295651703 
2.3494282469 2.3680303173 2.3899057108 2.4159740166 2.4475202889 2.486385773 2.448570738 2.4736848652 2.5028148801 
2.5369440334 2.5773755784 2.6258554882 2.6847397011 2.5377803997 2.5675431237 2.6015718084 2.6407557529 2.6862098746 
2.7393287203 2.8018393335 2.8758309421 1.6743954455 1.6743954455 1.7840462375 1.6743954455 1.7840462375 1.8974821136 
1.6743954455 1.7840462375 1.8974821136 2.0119052671 1.6743954455 1.7840462375 1.8974821136 2.0119052671 2.1243706857 
1.6743954455 1.7840462375 1.8974821136 2.0119052671 2.1243706857 2.232221744 1.6743954455 1.7840462375 1.8974821136 
2.0119052671 2.1243706857 2.232221744 2.3334263672 1.6743954455 1.7840462375 1.8974821136 2.0119052671 2.1243706857 
2.232221744 2.3334263672 2.426721652 1.4671972081 1.3575464161 1.4671972081 1.24411054 1.3575464161 1.4671972081 
1.1296873865 1.24411054 1.3575464161 1.4671972081 1.0172219679 1.1296873865 1.24411054 1.3575464161 1.4671972081 
0.90937090954 1.0172219679 1.1296873865 1.24411054 1.3575464161 1.4671972081 0.80816628637 0.90937090954 1.0172219679 
1.1296873865 1.24411054 1.3575464161 1.4671972081 0.71487100155 0.80816628637 0.90937090954 1.0172219679 1.1296873865 
1.24411054 1.3575464161 1.4671972081 0.60381225391 0.57404952988 0.69302191562 0.54002084522 0.66790778838 0.79216440667 
0.50083690068 0.63877777351 0.77356233629 0.90072551443 0.45538277901 0.60464862014 0.75168694275 0.89058134991 1.0172219679 
0.40226393329 0.56421707518 0.72561863695 0.87851444325 1.0172219679 1.139116835 0.33975332011 0.51573716537 0.69407236469 
0.86392567495 1.0172219679 1.1502619915 1.2630228569 0.26576171152 0.45685295248 0.6552068806 0.84594095064 1.0172219679 
1.1636342747 1.2852923014 1.3852070904 0.22715816343 0.3129712797 0.49462574053 0.49462574053 0.68021497688 0.77059342779 
1.0172219679 1.0172219679 1.0172219679 1.0172219679 2.1243706857 1.5707963268 1.3676273807 1.271087727 1.2156949949 
2.6469669131 2.1243706857 1.7739652728 1.5707963268 1.447813335 1.3676273807 2.8286213739 2.4613776767 2.1243706857 
1.8705049266 1.6937793186 1.5707963268 1.4827341049 2.9144344902 2.6469669131 2.3709992258 2.1243706857 1.9258976586 
1.7739652728 1.6588585487 1.5707963268 1.7563855631 1.8563003522 1.8785697967 1.9779583789 1.9913306621 2.0024758186 
2.1243706857 2.1243706857 2.1243706857 2.1243706857 2.295651703 2.2776669786 2.2630782103 2.2510113037 2.2408671392 
2.486385773 2.4475202889 2.4159740166 2.3899057108 2.3680303173 2.3494282469 2.6847397011 2.6258554882 2.5773755784 
2.5369440334 2.5028148801 2.4736848652 2.448570738 2.8758309421 2.8018393335 2.7393287203 2.6862098746 2.6407557529 
2.6015718084 2.5675431237 2.5377803997 5.8604937156 5.901393709 5.9723133995 5.9473927383 6.0216547488 6.0927478736 
5.9992719463 6.0767621038 6.1501452836 6.2190157008 6.0578962336 6.1383094565 6.2134963469 0 0.064169606361 
6.1241815303 6.206940195 6.2831853072 0.069688960264 0.13304002361 0.19043743361 6.1990255847 0 0.07624511221 
0.14487585072 0.20642320337 0.26153055843 0.3108719077 0 0.084159722458 0.15900377685 0.22528907359 0.28391336087 
0.3357925689 0.38179159818 0.42269159155 5.8604937156 5.9723133995 5.901393709 6.0927478736 6.0216547488 5.9473927383 
6.2190157008 6.1501452836 6.0767621038 5.9992719463 0.064169606361 0 6.2134963469 6.1383094565 6.0578962336 
0.19043743361 0.13304002361 0.069688960264 6.2831853072 6.206940195 6.1241815303 0.3108719077 0.26153055843 0.20642320337 
0.14487585072 0.07624511221 6.2831853072 6.1990255847 0.42269159155 0.38179159818 0.3357925689 0.28391336087 0.22528907359 
0.15900377685 0.084159722458 0 5.6793730533 5.7091357773 5.5901633916 5.743164462 5.6152775188 5.4910209005 
5.7823484065 5.6444075337 5.5096229709 5.3824597928 5.8278025282 5.678536687 5.5314983644 5.3926039573 5.2659633393 
5.8809213739 5.718968232 5.5575666702 5.4046708639 5.2659633393 5.1440684722 5.9434319871 5.7674481418 5.5891129425 
5.4192596322 5.2659633393 5.1329233157 5.0201624502 6.0174235957 5.8263323547 5.6279784266 5.4372443565 5.2659633393 
5.1195510325 4.9978930058 4.8979782167 1.3852070904 1.2852923014 1.2630228569 1.1636342747 1.1502619915 1.139116835 
1.0172219679 1.0172219679 1.0172219679 1.0172219679 0.84594095064 0.86392567495 0.87851444325 0.89058134991 0.90072551443 
0.6552068806 0.69407236469 0.72561863695 0.75168694275 0.77356233629 0.79216440667 0.45685295248 0.51573716537 0.56421707518 
0.60464862014 0.63877777351 0.66790778838 0.69302191562 0.26576171152 0.33975332011 0.40226393329 0.45538277901 0.50083690068 
0.54002084522 0.57404952988 0.60381225391 
_paraPhiHalf 1 1002 double
0 3.1415926536 0 3.1415926536 1.5707963268 1.5707963268 1.5707963268 1.5707963268 2.5880182947 
0.5535743589 2.5880182947 0.5535743589 0 0 0 0 3.1415926536 3.1415926536 
3.1415926536 3.1415926536 3.1415926536 0.17788134 0.38438696014 0.60631181711 0.82323535693 1.0172219679 1.1799687454 
1.3118704726 1.4175000338 1.5022335207 0.17788134 0.38438696014 0.60631181711 0.82323535693 1.0172219679 1.1799687454 
1.3118704726 1.4175000338 1.5022335207 0.093902416448 0.17615329733 0.2478725152 0.31035131605 0.36486382811 0.41257334776 
0.45449736604 0.4915044461 0.52432611754 0.093902416448 0.17615329733 0.2478725152 0.31035131605 0.36486382811 0.41257334776 
0.45449736604 0.4915044461 0.52432611754 2.9637113136 2.7572056934 2.5352808365 2.3183572967 2.1243706857 1.9616239082 
1.829722181 1.7240926197 1.6393591329 2.9637113136 2.7572056934 2.5352808365 2.3183572967 2.1243706857 1.9616239082 
1.829722181 1.7240926197 1.6393591329 3.0476902371 2.9654393563 2.8937201384 2.8312413375 2.7767288255 2.7290193058 
2.6870952876 2.6500882075 2.617266536 3.0476902371 2.9654393563 2.8937201384 2.8312413375 2.7767288255 2.7290193058 
2.6870952876 2.6500882075 2.617266536 0 0 0 0 3.1415926536 3.1415926536 
3.1415926536 3.1415926536 3.1415926536 0.17788134 0.38438696014 0.60631181711 0.82323535693 1.0172219679 1.1799687454 
1.3118704726 1.4175000338 1.5022335207 0.17788134 0.38438696014 0.60631181711 0.82323535693 1.0172219679 1.1799687454 
1.3118704726 1.4175000338 1.5022335207 0.093902416448 0.17615329733 0.2478725152 0.31035131605 0.36486382811 0.41257334776 
0.45449736604 0.4915044461 0.52432611754 0.093902416448 0.17615329733 0.2478725152 0.31035131605 0.36486382811 0.41257334776 
0.45449736604 0.4915044461 0.52432611754 2.9637113136 2.7572056934 2.5352808365 2.3183572967 2.1243706857 1.9616239082 
1.829722181 1.7240926197 1.6393591329 2.9637113136 2.7572056934 2.5352808365 2.3183572967 2.1243706857 1.9616239082 
1.829722181 1.7240926197 1.6393591329 3.0476902371 2.9654393563 2.8937201384 2.8312413375 2.7767288255 2.7290193058 
2.6870952876 2.6500882075 2.617266536 3.0476902371 2.9654393563 2.8937201384 2.8312413375 2.7767288255 2.7290193058 
2.6870952876 2.6500882075 2.617266536 1.5707963268 1.5707963268 1.5707963268 1.5707963268 1.5707963268 1.5707963268 
1.5707963268 1.5707963268 1.5707963268 1.6743954455 1.7840462375 1.8974821136 2.0119052671 2.1243706857 2.232221744 
2.3334263672 2.426721652 2.5115728246 1.4671972081 1.3575464161 1.24411054 1.1296873865 1.0172219679 0.90937090954 
0.80816628637 0.71487100155 0.63001982895 1.6743954455 1.7840462375 1.8974821136 2.0119052671 2.1243706857 2.232221744 
2.3334263672 2.426721652 2.5115728246 1.4671972081 1.3575464161 1.24411054 1.1296873865 1.0172219679 0.90937090954 
0.80816628637 0.71487100155 0.63001982895 1.5707963268 1.5707963268 1.5707963268 1.5707963268 1.5707963268 1.5707963268 
1.5707963268 1.5707963268 1.5707963268 1.6743954455 1.7840462375 1.8974821136 2.0119052671 2.1243706857 2.232221744 
2.3334263672 2.426721652 2.5115728246 1.4671972081 1.3575464161 1.24411054 1.1296873865 1.0172219679 0.90937090954 
0.80816628637 0.71487100155 0.63001982895 1.6743954455 1.7840462375 1.8974821136 2.0119052671 2.1243706857 2.232221744 
2.3334263672 2.426721652 2.5115728246 1.4671972081 1.3575464161 1.24411054 1.1296873865 1.0172219679 0.90937090954 
0.80816628637 0.71487100155 0.63001982895 2.6824132222 2.7864913217 2.8992382033 3.0186096618 3.1415926536 3.0186096618 
2.8992382033 2.7864913217 2.6824132222 0.45917943135 0.35510133185 0.2423544503 0.12298299178 0 0.12298299178 
0.2423544503 0.35510133185 0.45917943135 0.22715816343 0.49462574053 0.3129712797 0.77059342779 0.68021497688 0.49462574053 
1.0172219679 1.0172219679 1.0172219679 1.0172219679 1.2156949949 1.271087727 1.3676273807 1.5707963268 2.1243706857 
1.3676273807 1.447813335 1.5707963268 1.7739652728 2.1243706857 2.6469669131 1.4827341049 1.5707963268 1.6937793186 
1.8705049266 2.1243706857 2.4613776767 2.8286213739 1.5707963268 1.6588585487 1.7739652728 1.9258976586 2.1243706857 
2.3709992258 2.6469669131 2.9144344902 0.26576171152 0.33975332011 0.45685295248 0.40226393329 0.51573716537 0.6552068806 
0.45538277901 0.56421707518 0.69407236469 0.84594095064 0.50083690068 0.60464862014 0.72561863695 0.86392567495 1.0172219679 
0.54002084522 0.63877777351 0.75168694275 0.87851444325 1.0172219679 1.1636342747 0.57404952988 0.66790778838 0.77356233629 
0.89058134991 1.0172219679 1.1502619915 1.2852923014 0.60381225391 0.69302191562 0.79216440667 0.90072551443 1.0172219679 
1.139116835 1.2630228569 1.3852070904 0.71487100155 0.80816628637 0.80816628637 0.90937090954 0.90937090954 0.90937090954 
1.0172219679 1.0172219679 1.0172219679 1.0172219679 1.1296873865 1.1296873865 1.1296873865 1.1296873865 1.1296873865 
1.24411054 1.24411054 1.24411054 1.24411054 1.24411054 1.24411054 1.3575464161 1.3575464161 1.3575464161 
1.3575464161 1.3575464161 1.3575464161 1.3575464161 1.4671972081 1.4671972081 1.4671972081 1.4671972081 1.4671972081 
1.4671972081 1.4671972081 1.4671972081 1.6743954455 1.6743954455 1.7840462375 1.6743954455 1.7840462375 1.8974821136 
1.6743954455 1.7840462375 1.8974821136 2.0119052671 1.6743954455 1.7840462375 1.8974821136 2.0119052671 2.1243706857 
1.6743954455 1.7840462375 1.8974821136 2.0119052671 2.1243706857 2.232221744 1.6743954455 1.7840462375 1.8974821136 
2.0119052671 2.1243706857 2.232221744 2.3334263672 1.6743954455 1.7840462375 1.8974821136 2.0119052671 2.1243706857 
2.232221744 2.3334263672 2.426721652 1.7563855631 1.8785697967 1.8563003522 2.0024758186 1.9913306621 1.9779583789 
2.1243706857 2.1243706857 2.1243706857 2.1243706857 2.2408671392 2.2510113037 2.2630782103 2.2776669786 2.295651703 
2.3494282469 2.3680303173 2.3899057108 2.4159740166 2.4475202889 2.486385773 2.448570738 2.4736848652 2.5028148801 
2.5369440334 2.5773755784 2.6258554882 2.6847397011 2.5377803997 2.5675431237 2.6015718084 2.6407557529 2.6862098746 
2.7393287203 2.8018393335 2.8758309421 2.718901062 2.8307207459 2.7598010554 2.95115522 2.8800620952 2.8058000847 
3.0774230472 3.00855263 2.9351694502 2.8576792927 3.0774230472 3.1415926536 3.0719036933 2.9967168029 2.91630358 
2.95115522 3.00855263 3.0719036933 3.1415926536 3.0653475414 2.9825888767 2.8307207459 2.8800620952 2.9351694502 
2.9967168029 3.0653475414 3.1415926536 3.0574329311 2.718901062 2.7598010554 2.8058000847 2.8576792927 2.91630358 
2.9825888767 3.0574329311 3.1415926536 2.718901062 2.7598010554 2.8307207459 2.8058000847 2.8800620952 2.95115522 
2.8576792927 2.9351694502 3.00855263 3.0774230472 2.91630358 2.9967168029 3.0719036933 3.1415926536 3.0774230472 
2.9825888767 3.0653475414 3.1415926536 3.0719036933 3.00855263 2.95115522 3.0574329311 3.1415926536 3.0653475414 