# vtk DataFile Version 5.1
vtk output
ASCII
DATASET POLYDATA
POINTS 1002 float
-11.9554 -0.572193 -2.52648 -23.4136 -13.1115 -5.05804 -10.9877 -3.70637 3.54172 
-22.2527 -13.7388 0.110362 -15.2686 -7.73369 -3.04192 -14.2477 -8.67665 0.270004 
-21.0862 -3.64785 -0.894112 -21.6926 -4.95703 3.14231 -19.5497 -23.8287 -4.26576 
-3.03746 -3.51138 -0.395413 -27.8199 -16.6048 -2.57701 -11.3306 3.12928 1.97654 
-12.9622 -1.24465 -2.60428 -14.1231 -2.01905 -2.71256 -15.4022 -2.86927 -2.85751 
-16.8617 -4.02401 -2.95486 -18.5276 -5.64335 -3.07642 -20.141 -7.41693 -3.43036 
-21.3872 -9.03637 -3.92838 -22.2567 -10.5297 -4.35244 -22.9078 -11.9117 -4.71243 
-11.7722 -1.06911 -2.674 -11.5725 -1.59598 -2.83752 -11.3619 -2.11058 -3.05237 
-11.2669 -2.74273 -3.24413 -11.4375 -3.57693 -3.29634 -11.9111 -4.50349 -3.25546 
-12.6516 -5.44303 -3.25473 -13.5561 -6.3393 -3.27171 -14.4611 -7.09611 -3.20052 
-12.7509 -0.528053 -2.40353 -13.6552 -0.585889 -2.23534 -14.6591 -0.750238 -2.0231 
-15.6848 -0.980284 -1.8077 -16.7077 -1.27576 -1.61725 -17.7425 -1.68495 -1.43857 
-18.7231 -2.17647 -1.28558 -19.5983 -2.67576 -1.16501 -20.3848 -3.16945 -1.03629 
-10.8651 -0.294156 -2.53498 -9.65863 -0.11279 -2.51752 -8.35773 -0.0774562 -2.43611 
-7.00352 -0.238165 -2.27908 -5.66711 -0.569859 -2.11521 -4.51603 -0.999007 -1.97235 
-3.71403 -1.53473 -1.73193 -3.25058 -2.19863 -1.32631 -3.03588 -2.89912 -0.84836 
-11.541 0.032138 -2.32723 -11.1911 0.554262 -2.02275 -10.8667 1.11029 -1.68408 
-10.6201 1.74118 -1.32805 -10.539 2.25647 -0.863825 -10.5711 2.62031 -0.32356 
-10.6749 2.98125 0.22078 -10.875 3.26193 0.818944 -11.1159 3.29857 1.44353 
-22.9122 -13.0547 -5.11817 -22.3236 -12.9373 -5.13788 -21.6758 -12.779 -5.07028 
-20.9853 -12.5374 -4.88841 -20.2826 -12.1772 -4.61991 -19.6331 -11.6437 -4.24715 
-18.933 -10.7963 -3.76475 -17.9302 -9.65066 -3.3367 -16.6182 -8.52251 -3.11154 
-23.5694 -12.3583 -4.77448 -23.661 -11.4077 -4.48864 -23.6672 -10.2815 -4.16016 
-23.5357 -9.10445 -3.72306 -23.2507 -7.99154 -3.22235 -22.8653 -6.95086 -2.72481 
-22.425 -5.97892 -2.21966 -21.9555 -5.11097 -1.72509 -21.4993 -4.34341 -1.28458 
-23.5013 -14.2556 -5.41989 -23.4365 -15.5438 -5.68527 -23.2292 -17.031 -5.76636 
-22.8836 -18.6839 -5.72379 -22.3684 -20.3663 -5.71023 -21.7469 -21.8583 -5.77134 
-21.1113 -22.9412 -5.76075 -20.4641 -23.5665 -5.4805 -19.8863 -23.8343 -4.91867 
-23.9592 -13.7893 -5.18138 -24.4586 -14.4492 -5.17685 -24.9009 -15.1328 -5.05443 
-25.3818 -15.8316 -4.91692 -25.9285 -16.3992 -4.72544 -26.4092 -16.7112 -4.38629 
-26.8258 -16.838 -3.97585 -27.2779 -16.8834 -3.55592 -27.6633 -16.8221 -3.08612 
-12.088 -4.32608 3.60527 -13.3671 -5.11514 3.68746 -14.7668 -5.97573 3.63596 
-16.182 -6.81368 3.30995 -17.5509 -7.75857 2.83863 -18.8532 -8.91193 2.3165 
-20.0054 -10.1333 1.66773 -20.9356 -11.3351 1.00169 -21.6698 -12.5488 0.488722 
-11.1135 -4.22584 3.339 -11.2601 -4.73024 3.08222 -11.3879 -5.2363 2.77973 
-11.5397 -5.79354 2.46446 -11.8059 -6.39179 2.15671 -12.2013 -6.97021 1.81869 
-12.6537 -7.49851 1.43682 -13.1301 -7.96055 1.04979 -13.6597 -8.34578 0.664773 
-11.6134 -3.51249 3.70686 -12.5283 -3.3266 3.75789 -13.7534 -3.22694 3.71927 
-15.1192 -3.29354 3.70867 -16.5001 -3.52492 3.78018 -17.9012 -3.83895 3.8284 
-19.2138 -4.15404 3.78069 -20.2654 -4.43748 3.66308 -21.0539 -4.70046 3.45649 
-10.0214 -3.5017 3.33819 -8.99516 -3.31485 3.04414 -7.92326 -3.14982 2.70735 
-6.84805 -3.04707 2.37414 -5.80066 -3.02255 2.01717 -4.85024 -3.0524 1.63124 
-4.05976 -3.14559 1.23395 -3.45836 -3.30709 0.763605 -3.10706 -3.45789 0.192456 
-10.3191 -3.01226 3.62018 -9.72825 -2.20285 3.65222 -9.27939 -1.245 3.58886 
-9.02712 -0.247807 3.48569 -9.0297 0.636196 3.37625 -9.28925 1.41021 3.18474 
-9.74605 2.08834 2.92134 -10.3142 2.6004 2.65775 -10.8735 2.93565 2.35779 
-21.744 -13.5645 0.0759089 -21.1903 -13.2805 0.0691019 -20.5746 -12.8517 0.0521503 
-19.885 -12.2872 0.0473819 -19.1009 -11.6223 0.127775 -18.1992 -10.8759 0.263714 
-17.2119 -10.1307 0.374521 -16.1913 -9.50508 0.429947 -15.182 -9.02891 0.39913 
-22.415 -13.1173 0.40552 -22.5386 -12.4187 0.743955 -22.63 -11.6502 1.08979 
-22.7307 -10.7856 1.46472 -22.8145 -9.82865 1.88417 -22.8036 -8.83641 2.25689 
-22.6781 -7.82356 2.54563 -22.4501 -6.80742 2.80991 -22.1158 -5.8473 3.02976 
-22.4395 -14.8742 -0.279793 -22.5708 -16.145 -0.705658 -22.609 -17.5868 -1.12288 
-22.4459 -19.1887 -1.47499 -22.0543 -20.7691 -1.7859 -21.5382 -22.1098 -2.10792 
-20.9166 -23.115 -2.49107 -20.2381 -23.7399 -3.00609 -19.7333 -23.9609 -3.63918 
-22.8888 -14.5402 -0.068009 -23.5421 -15.3085 -0.245768 -24.1979 -15.9678 -0.410345 
-24.8931 -16.4821 -0.588342 -25.6425 -16.8371 -0.827876 -26.3412 -17.0279 -1.09939 
-26.9065 -17.0905 -1.38059 -27.3605 -17.0551 -1.7307 -27.6841 -16.8979 -2.15544 
-14.9516 -7.77453 -2.8757 -14.6489 -7.87438 -2.65547 -14.368 -8.03314 -2.41676 
-14.1244 -8.21694 -2.13384 -13.93 -8.43119 -1.75884 -13.8134 -8.6417 -1.34256 
-13.8185 -8.74378 -0.942157 -13.9304 -8.73121 -0.532059 -14.085 -8.69481 -0.1113 
-16.8425 -9.04134 -2.96809 -18.2374 -11.049 -3.21691 -19.0152 -13.3635 -3.82749 
-19.1007 -15.3868 -4.44675 -19.0503 -17.0974 -4.74128 -19.2758 -18.8283 -4.78912 
-19.5121 -20.5229 -4.76659 -19.5068 -21.956 -4.68985 -19.4369 -23.0682 -4.52754 
-13.4949 -7.06009 -3.14038 -11.8204 -6.77003 -3.14075 -10.2559 -6.38369 -2.94491 
-8.69431 -5.81077 -2.66838 -7.26734 -5.39533 -2.38962 -6.08453 -5.10201 -2.06425 
-5.00924 -4.72326 -1.69898 -4.0483 -4.34719 -1.31098 -3.37664 -3.98442 -0.873036 
-15.5207 -9.30434 -0.0877537 -16.9659 -10.3922 -0.595358 -18.305 -12.2154 -1.22276 
-19.2102 -14.6321 -1.85101 -19.6058 -17.0393 -2.37037 -19.6805 -19.0476 -2.78078 
-19.6098 -20.7282 -3.13515 -19.467 -22.1319 -3.47396 -19.3834 -23.1726 -3.84434 
-12.9826 -8.2268 0.311464 -11.6844 -7.82638 0.320773 -10.2916 -7.46559 0.314741 
-8.83955 -7.17218 0.253478 -7.48855 -6.85887 0.173593 -6.26121 -6.37025 0.133237 
-5.09392 -5.73996 0.0626242 -4.09045 -5.07753 -0.0862795 -3.40199 -4.34953 -0.253012 
-21.246 -3.51159 -0.55427 -21.395 -3.34654 -0.188661 -21.5369 -3.16159 0.204925 
-21.6641 -3.03265 0.723527 -21.7431 -3.06272 1.38548 -21.7611 -3.28334 1.97004 
-21.7577 -3.65231 2.33672 -21.7621 -4.10048 2.61834 -21.752 -4.55137 2.90839 
-22.0309 -4.53424 -1.02914 -23.0572 -5.41825 -1.26237 -24.1014 -6.33657 -1.5721 
-25.0984 -7.56695 -1.94355 -26.065 -9.36461 -2.40568 -26.9599 -11.4427 -2.82635 
-27.5766 -13.2228 -2.97221 -27.8319 -14.5604 -2.87027 -27.8726 -15.6581 -2.71382 
-20.2523 -2.64961 -0.599314 -19.3326 -1.59049 -0.278272 -18.3382 -0.555282 0.0616012 
-17.3206 0.420457 0.372931 -16.3291 1.33867 0.642879 -15.3271 2.12098 0.915922 
-14.2484 2.64533 1.20862 -13.1637 2.92237 1.49307 -12.195 3.0659 1.75218 
-22.6332 -5.77774 2.71456 -23.6705 -6.6944 2.25905 -24.6675 -7.75078 1.81409 
-25.5412 -8.99682 1.27171 -26.3343 -10.4778 0.539262 -26.9935 -12.0596 -0.249405 
-27.4168 -13.4594 -0.948489 -27.6669 -14.6272 -1.56698 -27.816 -15.6823 -2.11483 
-20.8119 -3.83852 3.39066 -19.8049 -2.52102 3.59026 -18.6735 -1.16099 3.72345 
-17.4601 0.012266 3.7412 -16.2401 0.989147 3.64717 -15.0794 1.81336 3.4661 
-14.0007 2.35903 3.152 -13.0025 2.64662 2.73255 -12.1062 2.88001 2.32871 
-20.1323 -24.303 -4.31483 -21.2122 -24.2438 -4.26836 -22.6187 -23.6017 -4.10198 
-23.9716 -22.7745 -3.89348 -24.9827 -21.9742 -3.72562 -25.7329 -20.9181 -3.53889 
-26.4741 -19.6796 -3.27123 -27.1711 -18.603 -2.9912 -27.6227 -17.6298 -2.76446 
-2.8661 -2.5159 -0.161074 -2.91119 -1.42625 0.0861 -3.2622 -0.441536 0.287956 
-3.97775 0.465688 0.443433 -4.98649 1.3419 0.652558 -6.21372 2.0972 0.987484 
-7.61779 2.71251 1.37577 -9.03794 3.12718 1.68619 -10.2865 3.23817 1.87113 
-12.8824 -1.76881 -2.77753 -12.7564 -2.24773 -3.00942 -14.1285 -2.49961 -2.95723 
-12.6679 -2.78975 -3.22908 -14.1622 -3.00876 -3.20686 -15.5888 -3.43689 -3.10244 
-12.8561 -3.59997 -3.28374 -14.4279 -3.82811 -3.29509 -15.996 -4.29191 -3.23857 
-17.368 -4.95285 -3.13563 -13.4203 -4.59322 -3.20062 -15.0621 -4.98962 -3.21084 
-16.6804 -5.58112 -3.22787 -18.0824 -6.25448 -3.25785 -19.2015 -6.89951 -3.34071 
-14.2218 -5.60548 -3.16552 -15.901 -6.19074 -3.17564 -17.4494 -7.00002 -3.26305 
-18.7595 -7.74186 -3.41626 -19.7954 -8.30789 -3.66283 -20.6461 -8.72241 -3.85954 
-15.0939 -6.64315 -3.20071 -16.7136 -7.36757 -3.25908 -18.0964 -8.30715 -3.45431 
-19.2083 -9.11903 -3.69605 -20.132 -9.66922 -4.00859 -20.926 -10.0263 -4.29311 
-21.6373 -10.2981 -4.38378 -15.9158 -7.64094 -3.18905 -17.3995 -8.55954 -3.32587 
-18.5877 -9.58734 -3.65308 -19.4762 -10.4043 -4.01286 -20.2662 -10.9424 -4.33347 
-21.0208 -11.2947 -4.62604 -21.7233 -11.5445 -4.78053 -22.3601 -11.7519 -4.77066 
-10.5424 -0.813581 -2.69879 -9.21197 -0.680401 -2.69371 -10.2345 -1.38495 -2.86898 
-7.86416 -0.744547 -2.60112 -8.85871 -1.31555 -2.87235 -10.0098 -1.99897 -3.08652 
-6.53663 -1.02406 -2.43603 -7.55226 -1.48564 -2.76218 -8.69868 -2.05751 -3.06868 
-9.96512 -2.78449 -3.26992 -5.29437 -1.46231 -2.28078 -6.33855 -1.90928 -2.56227 
-7.52167 -2.38087 -2.88076 -8.77185 -3.01327 -3.18491 -10.1642 -3.75244 -3.31448 
-4.33336 -2.01985 -2.09462 -5.29906 -2.50289 -2.35771 -6.51011 -2.94761 -2.60377 
-7.78989 -3.44393 -2.91005 -9.1136 -4.10176 -3.18772 -10.6811 -4.77285 -3.29891 
-3.75435 -2.6829 -1.76522 -4.58933 -3.15887 -2.09659 -5.72359 -3.60984 -2.35736 
-7.00919 -4.00295 -2.62009 -8.36094 -4.51521 -2.91539 -9.81703 -5.17307 -3.1892 
-11.5359 -5.7364 -3.31825 -3.46146 -3.37408 -1.32569 -4.2084 -3.79052 -1.72653 
-5.2354 -4.21777 -2.06848 -6.41912 -4.58381 -2.37953 -7.75411 -4.94292 -2.65819 
-9.23827 -5.51595 -2.94306 -10.8084 -6.10319 -3.20548 -12.5457 -6.51167 -3.29174 
-3.90349 -4.76275 -0.747956 -4.77993 -5.49976 -0.615643 -4.79121 -5.12438 -1.21028 
-5.8868 -6.26603 -0.495174 -5.80102 -5.94786 -1.10091 -5.88218 -5.53776 -1.61751 
-7.04397 -6.91011 -0.384327 -6.89119 -6.71092 -0.976323 -6.91022 -6.32318 -1.5063 
-6.99619 -5.8647 -1.99759 -8.31904 -7.29235 -0.247155 -8.04077 -7.22466 -0.838762 
[...]
POINT_DATA 1002
FIELD FieldData 4
_paraPhi 1 1002 double
6.2831853072 3.1415926536 6.2831853072 3.1415926536 4.7123889804 4.7123889804 1.5707963268 1.5707963268 3.6951670125 
5.7296109483 2.5880182947 0.5535743589 6.2831853072 6.2831853072 6.2831853072 6.2831853072 3.1415926536 3.1415926536 
3.1415926536 3.1415926536 3.1415926536 6.1053039672 5.898798347 5.6768734901 5.4599499503 5.2659633393 5.1032165617 
4.9713148346 4.8656852733 4.7809517865 0.17788134 0.38438696014 0.60631181711 0.82323535693 1.0172219679 1.1799687454 
1.3118704726 1.4175000338 1.5022335207 6.1892828907 6.1070320098 6.035312792 5.9728339911 5.9183214791 5.8706119594 
5.8286879411 5.7916808611 5.7588591896 0.093902416448 0.17615329733 0.2478725152 0.31035131605 0.36486382811 0.41257334776 
0.45449736604 0.4915044461 0.52432611754 3.3194739936 3.5259796137 3.7479044707 3.9648280105 4.1588146215 4.321561399 
4.4534631262 4.5590926874 4.6438261743 2.9637113136 2.7572056934 2.5352808365 2.3183572967 2.1243706857 1.9616239082 
1.829722181 1.7240926197 1.6393591329 3.23549507 3.3177459509 3.3894651688 3.4519439696 3.5064564817 3.5541660013 
3.5960900196 3.6330970997 3.6659187711 3.0476902371 2.9654393563 2.8937201384 2.8312413375 2.7767288255 2.7290193058 
2.6870952876 2.6500882075 2.617266536 6.2831853072 6.2831853072 6.2831853072 6.2831853072 3.1415926536 3.1415926536 
3.1415926536 3.1415926536 3.1415926536 6.1053039672 5.898798347 5.6768734901 5.4599499503 5.2659633393 5.1032165617 
4.9713148346 4.8656852733 4.7809517865 0.17788134 0.38438696014 0.60631181711 0.82323535693 1.0172219679 1.1799687454 
1.3118704726 1.4175000338 1.5022335207 6.1892828907 6.1070320098 6.035312792 5.9728339911 5.9183214791 5.8706119594 
5.8286879411 5.7916808611 5.7588591896 0.093902416448 0.17615329733 0.2478725152 0.31035131605 0.36486382811 0.41257334776 
0.45449736604 0.4915044461 0.52432611754 3.3194739936 3.5259796137 3.7479044707 3.9648280105 4.1588146215 4.321561399 
4.4534631262 4.5590926874 4.6438261743 2.9637113136 2.7572056934 2.5352808365 2.3183572967 2.1243706857 1.9616239082 
1.829722181 1.7240926197 1.6393591329 3.23549507 3.3177459509 3.3894651688 3.4519439696 3.5064564817 3.5541660013 
3.5960900196 3.6330970997 3.6659187711 3.0476902371 2.9654393563 2.8937201384 2.8312413375 2.7767288255 2.7290193058 
2.6870952876 2.6500882075 2.617266536 4.7123889804 4.7123889804 4.7123889804 4.7123889804 4.7123889804 4.7123889804 
4.7123889804 4.7123889804 4.7123889804 4.6087898617 4.4991390697 4.3857031936 4.2712800401 4.1588146215 4.0509635631 
3.94975894 3.8564636551 3.7716124825 4.8159880991 4.9256388911 5.0390747672 5.1534979207 5.2659633393 5.3738143976 
5.4750190208 5.5683143056 5.6531654782 4.6087898617 4.4991390697 4.3857031936 4.2712800401 4.1588146215 4.0509635631 
3.94975894 3.8564636551 3.7716124825 4.8159880991 4.9256388911 5.0390747672 5.1534979207 5.2659633393 5.3738143976 
5.4750190208 5.5683143056 5.6531654782 1.5707963268 1.5707963268 1.5707963268 1.5707963268 1.5707963268 1.5707963268 
1.5707963268 1.5707963268 1.5707963268 1.6743954455 1.7840462375 1.8974821136 2.0119052671 2.1243706857 2.232221744 
2.3334263672 2.426721652 2.5115728246 1.4671972081 1.3575464161 1.24411054 1.1296873865 1.0172219679 0.90937090954 
0.80816628637 0.71487100155 0.63001982895 1.6743954455 1.7840462375 1.8974821136 2.0119052671 2.1243706857 2.232221744 
2.3334263672 2.426721652 2.5115728246 1.4671972081 1.3575464161 1.24411054 1.1296873865 1.0172219679 0.90937090954 
0.80816628637 0.71487100155 0.63001982895 3.6007720849 3.4966939854 3.3839471039 3.2645756454 3.1415926536 3.0186096618 
2.8992382033 2.7864913217 2.6824132222 5.8240058758 5.9280839753 6.0408308569 6.1602023154 6.2831853072 0.12298299178 
0.2423544503 0.35510133185 0.45917943135 6.0560271438 5.7885595667 5.9702140275 5.5125918794 5.6029703303 5.7885595667 
5.2659633393 5.2659633393 5.2659633393 5.2659633393 5.0674903122 5.0120975802 4.9155579264 4.7123889804 4.1588146215 
4.9155579264 4.8353719722 4.7123889804 4.5092200343 4.1588146215 3.6362183941 4.8004512023 4.7123889804 4.5894059886 
4.4126803806 4.1588146215 3.8218076305 3.4545639333 4.7123889804 4.6243267584 4.5092200343 4.3572876485 4.1588146215 
3.9121860814 3.6362183941 3.368750817 6.0174235957 5.9434319871 5.8263323547 5.8809213739 5.7674481418 5.6279784266 
5.8278025282 5.718968232 5.5891129425 5.4372443565 5.7823484065 5.678536687 5.5575666702 5.4192596322 5.2659633393 
5.743164462 5.6444075337 5.5314983644 5.4046708639 5.2659633393 5.1195510325 5.7091357773 5.6152775188 5.5096229709 
5.3926039573 5.2659633393 5.1329233157 4.9978930058 5.6793730533 5.5901633916 5.4910209005 5.3824597928 5.2659633393 
5.1440684722 5.0201624502 4.8979782167 5.5683143056 5.4750190208 5.4750190208 5.3738143976 5.3738143976 5.3738143976 
5.2659633393 5.2659633393 5.2659633393 5.2659633393 5.1534979207 5.1534979207 5.1534979207 5.1534979207 5.1534979207 
5.0390747672 5.0390747672 5.0390747672 5.0390747672 5.0390747672 5.0390747672 4.9256388911 4.9256388911 4.9256388911 
4.9256388911 4.9256388911 4.9256388911 4.9256388911 4.8159880991 4.8159880991 4.8159880991 4.8159880991 4.8159880991 
4.8159880991 4.8159880991 4.8159880991 4.6087898617 4.6087898617 4.4991390697 4.6087898617 4.4991390697 4.3857031936 
4.6087898617 4.4991390697 4.3857031936 4.2712800401 4.6087898617 4.4991390697 4.3857031936 4.2712800401 4.1588146215 
4.6087898617 4.4991390697 4.3857031936 4.2712800401 4.1588146215 4.0509635631 4.6087898617 4.4991390697 4.3857031936 
4.2712800401 4.1588146215 4.0509635631 3.94975894 4.6087898617 4.4991390697 4.3857031936 4.2712800401 4.1588146215 
4.0509635631 3.94975894 3.8564636551 4.526799744 4.4046155105 4.426884955 4.2807094886 4.2918546451 4.3052269283 
4.1588146215 4.1588146215 4.1588146215 4.1588146215 4.042318168 4.0321740035 4.0201070968 4.0055183285 3.9875336042 
3.9337570603 3.9151549899 3.8932795963 3.8672112905 3.8356650183 3.7967995342 3.8346145692 3.809500442 3.7803704271 
3.7462412737 3.7058097288 3.657329819 3.5984456061 3.7454049075 3.7156421835 3.6816134988 3.6424295543 3.5969754326 
3.5438565869 3.4813459737 3.4073543651 3.5642842451 3.4524645613 3.5233842518 3.3320300872 3.403123212 3.4773852225 
3.20576226 3.2746326772 3.348015857 3.4255060145 3.0774230472 3.1415926536 3.2112816139 3.2864685043 3.3668817272 
2.95115522 3.00855263 3.0719036933 3.1415926536 3.2178377658 3.3005964304 2.8307207459 2.8800620952 2.9351694502 
2.9967168029 3.0653475414 3.1415926536 3.225752376 2.718901062 2.7598010554 2.8058000847 2.8576792927 2.91630358 
2.9825888767 3.0574329311 3.1415926536 3.5642842451 3.5233842518 3.4524645613 3.4773852225 3.403123212 3.3320300872 
3.4255060145 3.348015857 3.2746326772 3.20576226 3.3668817272 3.2864685043 3.2112816139 3.1415926536 3.0774230472 
3.3005964304 3.2178377658 3.1415926536 3.0719036933 3.00855263 2.95115522 3.225752376 3.1415926536 3.0653475414 
2.9967168029 2.9351694502 2.8800620952 2.8307207459 3.1415926536 3.0574329311 2.9825888767 2.91630358 2.8576792927 
2.8058000847 2.7598010554 2.718901062 4.526799744 4.426884955 4.4046155105 4.3052269283 4.2918546451 4.2807094886 
4.1588146215 4.1588146215 4.1588146215 4.1588146215 3.9875336042 4.0055183285 4.0201070968 4.0321740035 4.042318168 
3.7967995342 3.8356650183 3.8672112905 3.8932795963 3.9151549899 3.9337570603 3.5984456061 3.657329819 3.7058097288 
3.7462412737 3.7803704271 3.809500442 3.8346145692 3.4073543651 3.4813459737 3.5438565869 3.5969754326 3.6424295543 
3.6816134988 3.7156421835 3.7454049075 4.7123889804 4.8004512023 4.6243267584 4.9155579264 4.7123889804 4.5092200343 
5.0674903122 4.8353719722 4.5894059886 4.3572876485 5.2659633393 5.0120975802 4.7123889804 4.4126803806 4.1588146215 
5.5125918794 5.2659633393 4.9155579264 4.5092200343 4.1588146215 3.9121860814 5.7885595667 5.6029703303 5.2659633393 
4.7123889804 4.1588146215 3.8218076305 3.6362183941 6.0560271438 5.9702140275 5.7885595667 5.2659633393 4.1588146215 
3.6362183941 3.4545639333 3.368750817 0.22715816343 0.49462574053 0.3129712797 0.77059342779 0.68021497688 0.49462574053 
1.0172219679 1.0172219679 1.0172219679 1.0172219679 1.2156949949 1.271087727 1.3676273807 1.5707963268 2.1243706857 
1.3676273807 1.447813335 1.5707963268 1.7739652728 2.1243706857 2.6469669131 1.4827341049 1.5707963268 1.6937793186 
1.8705049266 2.1243706857 2.4613776767 2.8286213739 1.5707963268 1.6588585487 1.7739652728 1.9258976586 2.1243706857 
2.3709992258 2.6469669131 2.9144344902 1.7563855631 1.8785697967 1.8563003522 2.0024758186 1.9913306621 1.9779583789 
2.1243706857 2.1243706857 2.1243706857 2.1243706857 2.2408671392 2.2510113037 2.2630782103 2.2776669786 2.295651703 
2.3494282469 2.3680303173 2.3899057108 2.4159740166 2.4475202889 2.486385773 2.448570738 2.4736848652 2.5028148801 
2.5369440334 2.5773755784 2.6258554882 2.6847397011 2.5377803997 2.5675431237 2.6015718084 2.6407557529 2.6862098746 
2.7393287203 2.8018393335 2.8758309421 1.6743954455 1.6743954455 1.7840462375 1.6743954455 1.7840462375 1.8974821136 
1.6743954455 1.7840462375 1.8974821136 2.0119052671 1.6743954455 1.7840462375 1.8974821136 2.0119052671 2.1243706857 
1.6743954455 1.7840462375 1.8974821136 2.0119052671 2.1243706857 2.232221744 1.6743954455 1.7840462375 1.8974821136 
2.0119052671 2.1243706857 2.232221744 2.3334263672 1.6743954455 1.7840462375 1.8974821136 2.0119052671 2.1243706857 
2.232221744 2.3334263672 2.426721652 1.4671972081 1.3575464161 1.4671972081 1.24411054 1.3575464161 1.4671972081 
1.1296873865 1.24411054 1.3575464161 1.4671972081 1.0172219679 1.1296873865 1.24411054 1.3575464161 1.4671972081 
0.90937090954 1.0172219679 1.1296873865 1.24411054 1.3575464161 1.4671972081 0.80816628637 0.90937090954 1.0172219679 
1.1296873865 1.24411054 1.3575464161 1.4671972081 0.71487100155 0.80816628637 0.90937090954 1.0172219679 1.1296873865 
1.24411054 1.3575464161 1.4671972081 0.60381225391 0.57404952988 0.69302191562 0.54002084522 0.66790778838 0.79216440667 
0.50083690068 0.63877777351 0.77356233629 0.90072551443 0.45538277901 0.60464862014 0.75168694275 0.89058134991 1.0172219679 
0.40226393329 0.56421707518 0.72561863695 0.87851444325 1.0172219679 1.139116835 0.33975332011 0.51573716537 0.69407236469 
0.86392567495 1.0172219679 1.1502619915 1.2630228569 0.26576171152 0.45685295248 0.6552068806 0.84594095064 1.0172219679 
1.1636342747 1.2852923014 1.3852070904 0.22715816343 0.3129712797 0.49462574053 0.49462574053 0.68021497688 0.77059342779 
1.0172219679 1.0172219679 1.0172219679 1.0172219679 2.1243706857 1.5707963268 1.3676273807 1.271087727 1.2156949949 
2.6469669131 2.1243706857 1.7739652728 1.5707963268 1.447813335 1.3676273807 2.8286213739 2.4613776767 2.1243706857 
1.8705049266 1.6937793186 1.5707963268 1.4827341049 2.9144344902 2.6469669131 2.3709992258 2.1243706857 1.9258976586 
1.7739652728 1.6588585487 1.5707963268 1.7563855631 1.8563003522 1.8785697967 1.9779583789 1.9913306621 2.0024758186 
2.1243706857 2.1243706857 2.1243706857 2.1243706857 2.295651703 2.2776669786 2.2630782103 2.2510113037 2.2408671392 
2.486385773 2.4475202889 2.4159740166 2.3899057108 2.3680303173 2.3494282469 2.6847397011 2.6258554882 2.5773755784 
2.5369440334 2.5028148801 2.4736848652 2.448570738 2.8758309421 2.8018393335 2.7393287203 2.6862098746 2.6407557529 
2.6015718084 2.5675431237 2.5377803997 5.8604937156 5.901393709 5.9723133995 5.9473927383 6.0216547488 6.0927478736 
5.9992719463 6.0767621038 6.1501452836 6.2190157008 6.0578962336 6.1383094565 6.2134963469 0 0.064169606361 
6.1241815303 6.206940195 6.2831853072 0.069688960264 0.13304002361 0.19043743361 6.1990255847 0 0.07624511221 
0.14487585072 0.20642320337 0.26153055843 0.3108719077 0 0.084159722458 0.15900377685 0.22528907359 0.28391336087 
0.3357925689 0.38179159818 0.42269159155 5.8604937156 5.9723133995 5.901393709 6.0927478736 6.0216547488 5.9473927383 
6.2190157008 6.1501452836 6.0767621038 5.9992719463 0.064169606361 0 6.2134963469 6.1383094565 6.0578962336 
0.19043743361 0.13304002361 0.069688960264 6.2831853072 6.206940195 6.1241815303 0.3108719077 0.26153055843 0.20642320337 
0.14487585072 0.07624511221 6.2831853072 6.1990255847 0.42269159155 0.38179159818 0.3357925689 0.28391336087 0.22528907359 
0.15900377685 0.084159722458 0 5.6793730533 5.7091357773 5.5901633916 5.743164462 5.6152775188 5.4910209005 
5.7823484065 5.6444075337 5.5096229709 5.3824597928 5.8278025282 5.678536687 5.5314983644 5.3926039573 5.2659633393 
5.8809213739 5.718968232 5.5575666702 5.4046708639 5.2659633393 5.1440684722 5.9434319871 5.7674481418 5.5891129425 
5.4192596322 5.2659633393 5.1329233157 5.0201624502 6.0174235957 5.8263323547 5.6279784266 5.4372443565 5.2659633393 
5.1195510325 4.9978930058 4.8979782167 1.3852070904 1.2852923014 1.2630228569 1.1636342747 1.1502619915 1.139116835 
1.0172219679 1.0172219679 1.0172219679 1.0172219679 0.84594095064 0.86392567495 0.87851444325 0.89058134991 0.90072551443 
0.6552068806 0.69407236469 0.72561863695 0.75168694275 0.77356233629 0.79216440667 0.45685295248 0.51573716537 0.56421707518 
0.60464862014 0.63877777351 0.66790778838 0.69302191562 0.26576171152 0.33975332011 0.40226393329 0.45538277901 0.50083690068 
0.54002084522 0.57404952988 0.60381225391 
_paraPhiHalf 1 1002 double
0 3.1415926536 0 3.1415926536 1.5707963268 1.5707963268 1.5707963268 1.5707963268 2.5880182947 
0.5535743589 2.5880182947 0.5535743589 0 0 0 0 3.1415926536 3.1415926536 
3.1415926536 3.1415926536 3.1415926536 0.17788134 0.38438696014 0.60631181711 0.82323535693 1.0172219679 1.1799687454 
1.3118704726 1.4175000338 1.5022335207 0.17788134 0.38438696014 0.60631181711 0.82323535693 1.0172219679 1.1799687454 
1.3118704726 1.4175000338 1.5022335207 0.093902416448 0.17615329733 0.2478725152 0.31035131605 0.36486382811 0.41257334776 
0.45449736604 0.4915044461 0.52432611754 0.093902416448 0.17615329733 0.2478725152 0.31035131605 0.36486382811 0.41257334776 
0.45449736604 0.4915044461 0.52432611754 2.9637113136 2.7572056934 2.5352808365 2.3183572967 2.1243706857 1.9616239082 
1.829722181 1.7240926197 1.6393591329 2.9637113136 2.7572056934 2.5352808365 2.3183572967 2.1243706857 1.9616239082 
1.829722181 1.7240926197 1.6393591329 3.0476902371 2.9654393563 2.8937201384 2.8312413375 2.7767288255 2.7290193058 
2.6870952876 2.6500882075 2.617266536 3.0476902371 2.9654393563 2.8937201384 2.8312413375 2.7767288255 2.7290193058 
2.6870952876 2.6500882075 2.617266536 0 0 0 0 3.1415926536 3.1415926536 
3.1415926536 3.1415926536 3.1415926536 0.17788134 0.38438696014 0.60631181711 0.82323535693 1.0172219679 1.1799687454 
1.3118704726 1.4175000338 1.5022335207 0.17788134 0.38438696014 0.60631181711 0.82323535693 1.0172219679 1.1799687454 
1.3118704726 1.4175000338 1.5022335207 0.093902416448 0.17615329733 0.2478725152 0.31035131605 0.36486382811 0.41257334776 
0.45449736604 0.4915044461 0.52432611754 0.093902416448 0.17615329733 0.2478725152 0.31035131605 0.36486382811 0.41257334776 
0.45449736604 0.4915044461 0.52432611754 2.9637113136 2.7572056934 2.5352808365 2.3183572967 2.1243706857 1.9616239082 
1.829722181 1.7240926197 1.6393591329 2.9637113136 2.7572056934 2.5352808365 2.3183572967 2.1243706857 1.9616239082 
1.829722181 1.7240926197 1.6393591329 3.0476902371 2.9654393563 2.8937201384 2.8312413375 2.7767288255 2.7290193058 
2.6870952876 2.6500882075 2.617266536 3.0476902371 2.9654393563 2.8937201384 2.8312413375 2.7767288255 2.7290193058 
2.6870952876 2.6500882075 2.617266536 1.5707963268 1.5707963268 1.5707963268 1.5707963268 1.5707963268 1.5707963268 
1.5707963268 1.5707963268 1.5707963268 1.6743954455 1.7840462375 1.8974821136 2.0119052671 2.1243706857 2.232221744 
2.3334263672 2.426721652 2.5115728246 1.4671972081 1.3575464161 1.24411054 1.1296873865 1.0172219679 0.90937090954 
0.80816628637 0.71487100155 0.63001982895 1.6743954455 1.7840462375 1.8974821136 2.0119052671 2.1243706857 2.232221744 
2.3334263672 2.426721652 2.5115728246 1.4671972081 1.3575464161 1.24411054 1.1296873865 1.0172219679 0.90937090954 
0.80816628637 0.71487100155 0.63001982895 1.5707963268 1.5707963268 1.5707963268 1.5707963268 1.5707963268 1.5707963268 
1.5707963268 1.5707963268 1.5707963268 1.6743954455 1.7840462375 1.8974821136 2.0119052671 2.1243706857 2.232221744 
2.3334263672 2.426721652 2.5115728246 1.4671972081 1.3575464161 1.24411054 1.1296873865 1.0172219679 0.90937090954 
0.80816628637 0.71487100155 0.63001982895 1.6743954455 1.7840462375 1.8974821136 2.0119052671 2.1243706857 2.232221744 
2.3334263672 2.426721652 2.5115728246 1.4671972081 1.3575464161 1.24411054 1.1296873865 1.0172219679 0.90937090954 
0.80816628637 0.71487100155 0.63001982895 2.6824132222 2.7864913217 2.8992382033 3.0186096618 3.1415926536 3.0186096618 
2.8992382033 2.7864913217 2.6824132222 0.45917943135 0.35510133185 0.2423544503 0.12298299178 0 0.12298299178 
0.2423544503 0.35510133185 0.45917943135 0.22715816343 0.49462574053 0.3129712797 0.77059342779 0.68021497688 0.49462574053 
1.0172219679 1.0172219679 1.0172219679 1.0172219679 1.2156949949 1.271087727 1.3676273807 1.5707963268 2.1243706857 
1.3676273807 1.447813335 1.5707963268 1.7739652728 2.1243706857 2.6469669131 1.4827341049 1.5707963268 1.6937793186 
1.8705049266 2.1243706857 2.4613776767 2.8286213739 1.5707963268 1.6588585487 1.7739652728 1.9258976586 2.1243706857 
2.3709992258 2.6469669131 2.9144344902 0.26576171152 0.33975332011 0.45685295248 0.40226393329 0.51573716537 0.6552068806 
0.45538277901 0.56421707518 0.69407236469 0.84594095064 0.50083690068 0.60464862014 0.72561863695 0.86392567495 1.0172219679 
0.54002084522 0.63877777351 0.75168694275 0.87851444325 1.0172219679 1.1636342747 0.57404952988 0.66790778838 0.77356233629 
0.89058134991 1.0172219679 1.1502619915 1.2852923014 0.60381225391 0.69302191562 0.79216440667 0.90072551443 1.0172219679 
1.139116835 1.2630228569 1.3852070904 0.71487100155 0.80816628637 0.80816628637 0.90937090954 0.90937090954 0.90937090954 
1.0172219679 1.0172219679 1.0172219679 1.0172219679 1.1296873865 1.1296873865 1.1296873865 1.1296873865 1.1296873865 
1.24411054 1.24411054 1.24411054 1.24411054 1.24411054 1.24411054 1.3575464161 1.3575464161 1.3575464161 
1.3575464161 1.3575464161 1.3575464161 1.3575464161 1.4671972081 1.4671972081 1.4671972081 1.4671972081 1.4671972081 
1.4671972081 1.4671972081 1.4671972081 1.6743954455 1.6743954455 1.7840462375 1.6743954455 1.7840462375 1.8974821136 
1.6743954455 1.7840462375 1.8974821136 2.0119052671 1.6743954455 1.7840462375 1.8974821136 2.0119052671 2.1243706857 
1.6743954455 1.7840462375 1.8974821136 2.0119052671 2.1243706857 2.232221744 1.6743954455 1.7840462375 1.8974821136 
2.0119052671 2.1243706857 2.232221744 2.3334263672 1.6743954455 1.7840462375 1.8974821136 2.0119052671 2.1243706857 
2.232221744 2.3334263672 2.426721652 1.7563855631 1.8785697967 1.8563003522 2.0024758186 1.9913306621 1.9779583789 
2.1243706857 2.1243706857 2.1243706857 2.1243706857 2.2408671392 2.2510113037 2.2630782103 2.2776669786 2.295651703 
2.3494282469 2.3680303173 2.3899057108 2.4159740166 2.4475202889 2.486385773 2.448570738 2.4736848652 2.5028148801 
2.5369440334 2.5773755784 2.6258554882 2.6847397011 2.5377803997 2.5675431237 2.6015718084 2.6407557529 2.6862098746 
2.7393287203 2.8018393335 2.8758309421 2.718901062 2.8307207459 2.7598010554 2.95115522 2.8800620952 2.8058000847 
3.0774230472 3.00855263 2.9351694502 2.8576792927 3.0774230472 3.1415926536 3.0719036933 2.9967168029 2.91630358 
2.95115522 3.00855263 3.0719036933 3.1415926536 3.0653475414 2.9825888767 2.8307207459 2.8800620952 2.9351694502 
2.9967168029 3.0653475414 3.1415926536 3.0574329311 2.718901062 2.7598010554 2.8058000847 2.8576792927 2.91630358 
2.9825888767 3.0574329311 3.1415926536 2.718901062 2.7598010554 2.8307207459 2.8058000847 2.8800620952 2.95115522 
2.8576792927 2.9351694502 3.00855263 3.0774230472 2.91630358 2.9967168029 3.0719036933 3.1415926536 3.0774230472 
2.9825888767 3.0653475414 3.1415926536 3.0719036933 3.00855263 2.95115522 3.0574329311 3.1415926536 3.0653475414 