# vtk DataFile Version 5.1
vtk output
ASCII
DATASET POLYDATA
POINTS 100 float
-4.29607 3.87821 1.04985 -4.3036 3.8702 1.048 -4.32541 3.84472 1.04626 
-4.36124 3.803 1.045 -4.41055 3.74677 1.0447 -4.47262 3.6779 1.04594 
-4.54649 3.59793 1.04926 -4.63106 3.50772 1.05512 -4.72515 3.40724 1.06381 
-4.82763 3.2956 1.07543 -4.93752 3.17124 1.08989 -5.05412 3.03234 1.1069 
-5.17712 2.87728 1.12609 -5.30662 2.70514 1.14698 -5.4431 2.516 1.16911 
-5.58732 2.31117 1.19203 -5.74018 2.09306 1.2154 -5.90254 1.8649 1.23893 
-6.075 1.63033 1.26244 -6.25776 1.39279 1.28582 -6.45058 1.1551 1.30899 
-6.65271 0.919015 1.33193 -6.86304 0.685087 1.35459 -7.08022 0.452696 1.37697 
-7.30293 0.220301 1.39901 -7.52999 -0.0141683 1.42067 -7.76062 -0.252863 1.44186 
-7.9945 -0.497605 1.46249 -8.23177 -0.749606 1.48242 -8.47293 -1.00935 1.50145 
-8.71869 -1.27666 1.51933 -8.96974 -1.55094 1.5358 -9.22657 -1.83145 1.55055 
-9.48928 -2.11764 1.56329 -9.75751 -2.40941 1.57385 -10.0305 -2.70716 1.58217 
-10.3072 -3.01179 1.58839 -10.5864 -3.32449 1.59293 -10.8672 -3.64645 1.59643 
-11.1488 -3.97862 1.59973 -11.4311 -4.32142 1.60383 -11.7145 -4.6747 1.60968 
-12 -5.03776 1.6181 -12.2886 -5.40963 1.62955 -12.5817 -5.78936 1.644 
-12.8802 -6.17636 1.66085 -13.1843 -6.57079 1.67884 -13.4937 -6.9736 1.69614 
-13.8069 -7.38661 1.71045 -14.1215 -7.81221 1.71923 -14.4343 -8.25295 1.71991 
-14.7415 -8.71104 1.71019 -15.0393 -9.18783 1.68827 -15.3235 -9.68342 1.65304 
-15.5906 -10.1964 1.6042 -15.8377 -10.7241 1.54229 -16.0625 -11.2624 1.46857 
-16.2637 -11.807 1.38491 -16.4407 -12.3532 1.29355 -16.5935 -12.8971 1.19688 
-16.7228 -13.4359 1.09721 -16.8296 -13.9684 0.996586 -16.9154 -14.4946 0.896711 
-16.9819 -15.0159 0.798859 -17.0308 -15.5343 0.703924 -17.064 -16.0522 0.612481 
-17.0838 -16.5715 0.524896 -17.0919 -17.0933 0.441426 -17.0905 -17.6175 0.362307 
-17.0813 -18.1428 0.287807 -17.0656 -18.6666 0.218231 -17.0446 -19.1858 0.153898 
-17.0189 -19.6969 0.0950856 -16.9889 -20.1965 0.0419651 -16.9546 -20.6816 -0.00545232 
-16.916 -21.1502 -0.0473492 -16.8732 -21.6007 -0.0841023 -16.8266 -22.0323 -0.11625 
-16.7771 -22.4444 -0.144434 -16.7264 -22.8367 -0.16932 -16.6764 -23.2087 -0.191524 
-16.6297 -23.5595 -0.211551 -16.5891 -23.8884 -0.229752 -16.557 -24.1944 -0.246321 
-16.5356 -24.4766 -0.261312 -16.5263 -24.735 -0.274684 -16.5292 -24.97 -0.286357 
-16.5438 -25.1828 -0.296261 -16.5683 -25.3755 -0.304383 -16.6003 -25.5504 -0.310787 
-16.6369 -25.71 -0.315617 -16.675 -25.8565 -0.319076 -16.712 -25.9911 -0.321399 
-16.7457 -26.1141 -0.322818 -16.7746 -26.2246 -0.323531 -16.7979 -26.3207 -0.323684 
-16.8154 -26.3998 -0.32337 -16.8275 -26.4589 -0.322635 -16.8344 -26.4957 -0.321494 
-16.8366 -26.5083 -0.319955 
LINES 2 100
OFFSETS vtktypeint64
0 100 
CONNECTIVITY vtktypeint64
0 1 2 3 4 5 6 7 8 
9 10 11 12 13 14 15 16 17 
18 19 20 21 22 23 24 25 26 
27 28 29 30 31 32 33 34 35 
36 37 38 39 40 41 42 43 44 
45 46 47 48 49 50 51 52 53 
54 55 56 57 58 59 60 61 62 
63 64 65 66 67 68 69 70 71 
72 73 74 75 76 77 78 79 80 
81 82 83 84 85 86 87 88 89 
90 91 92 93 94 95 96 97 98 
99 
POINT_DATA 100
FIELD FieldData 3
_theta 1 100 double
0 0.031733259127 0.063466518254 0.095199777382 0.12693303651 0.15866629564 0.19039955476 0.22213281389 0.25386607302 
0.28559933214 0.31733259127 0.3490658504 0.38079910953 0.41253236865 0.44426562778 0.47599888691 0.50773214603 0.53946540516 
0.57119866429 0.60293192342 0.63466518254 0.66639844167 0.6981317008 0.72986495992 0.76159821905 0.79333147818 0.82506473731 
0.85679799643 0.88853125556 0.92026451469 0.95199777382 0.98373103294 1.0154642921 1.0471975512 1.0789308103 1.1106640695 
1.1423973286 1.1741305877 1.2058638468 1.237597106 1.2693303651 1.3010636242 1.3327968833 1.3645301425 1.3962634016 
1.4279966607 1.4597299198 1.491463179 1.5231964381 1.5549296972 1.5866629564 1.6183962155 1.6501294746 1.6818627337 
1.7135959929 1.745329252 1.7770625111 1.8087957702 1.8405290294 1.8722622885 1.9039955476 1.9357288068 1.9674620659 
1.999195325 2.0309285841 2.0626618433 2.0943951024 2.1261283615 2.1578616206 2.1895948798 2.2213281389 2.253061398 
2.2847946572 2.3165279163 2.3482611754 2.3799944345 2.4117276937 2.4434609528 2.4751942119 2.506927471 2.5386607302 
2.5703939893 2.6021272484 2.6338605076 2.6655937667 2.6973270258 2.7290602849 2.7607935441 2.7925268032 2.8242600623 
2.8559933214 2.8877265806 2.9194598397 2.9511930988 2.982926358 3.0146596171 3.0463928762 3.0781261353 3.1098593945 
3.1415926536 
_radius 1 100 double
7.8692808477e-15 0.29435534579 0.5864649224 0.87422195197 1.155845474 1.4299448281 1.695508798 1.9518430477 2.1984893603 
2.4351538572 2.6616559613 2.8778958792 3.083832107 3.2794613328 3.464797366 3.6398504819 3.8046121118 3.9590506097 
4.1031211364 4.2367876759 4.3600504163 4.4729694113 4.5756762184 4.6683685008 4.7512876276 4.8246855142 4.8887929166 
4.9438042238 4.9898903366 5.0272409276 5.0561239467 5.07694002 5.0902475679 5.0967420564 5.0971863338 5.092302824 
5.0826476497 5.068490039 5.0497194646 5.0258007968 4.9957953017 4.9584605116 4.9124317128 4.8564713489 4.7897538051 
4.7121388648 4.6243842526 4.528258667 4.4265380494 4.3228907172 4.221670707 4.1276366423 4.0455989577 3.9799856148 
3.9343259467 3.910702525 3.9093069402 3.9282889287 3.9640115157 4.0116423604 4.0658831105 4.121646421 4.1745690348 
4.2213226378 4.2597330317 4.2887468101 4.3082940686 4.3190871714 4.3223787766 4.3196915581 4.312536177 4.3021489656 
4.2892918676 4.2741503268 4.2563383788 4.2349872005 4.208871289 4.1765245247 4.136314173 4.0864657963 4.0250572173 
3.9500176083 3.8591723884 3.7503629134 3.6216447383 3.4715385401 3.2992852222 3.1050495176 2.8900254204 2.6564164491 
2.4072865652 2.1462980925 1.8773688553 1.6042916421 1.3303651205 1.0580861647 0.78894833095 0.5233789527 0.26082818774 
3.8807058982e-14 
_area 1 100 double
0 0.24168081502 0.9588161766 2.1288129999 3.7173794679 5.6824427301 7.9780771773 10.557864213 13.377351193 
16.395284518 19.573398194 22.875123922 26.264343933 29.70534888 33.16421132 36.610676428 40.019338641 43.369436514 
46.643542518 49.826113381 52.902877583 55.861355405 58.691836421 61.387499473 63.942576121 66.348603389 68.590288577 
70.643310278 72.47582485 74.05376078 75.348143479 76.341751684 77.032842884 77.43514558 77.57485071 77.486023087 
77.2054683 76.767275818 76.196970461 75.505845888 74.687107619 73.715904271 72.554529379 71.162368151 69.508501578 
67.583912494 65.410173826 63.042492723 60.566600485 58.089995678 55.728579936 53.59253129 51.77855178 50.367714491 
49.416027141 48.939675941 48.915202103 49.289744573 49.983505947 50.891060829 51.894385996 52.884278737 53.775002286 
54.502246691 55.011579304 55.255890646 55.208219729 54.876425399 54.306218636 53.570454728 52.749745562 51.911842138 
51.097187652 50.315258175 49.550806462 48.77427085 47.95029933 47.041817183 46.010534591 44.816202708 43.416649645 
41.769734313 39.837595443 37.592978723 35.026631098 32.153816694 29.017613976 25.687397696 22.252612154 18.813656042 
15.472359739 12.323824158 9.4500989888 6.9154873425 4.7635588957 3.0165739223 1.6780770738 0.73862623448 0.18344674722 
6.8634092688e-14 
