# vtk DataFile Version 5.1
vtk output
ASCII
DATASET POLYDATA
POINTS 1002 float
-8.49575 -0.286745 -3.4015 8.75694 -0.666646 -3.1034 -7.9356 0.376685 3.37098 
7.71911 -0.603208 2.23932 -1.37326 1.79024 -2.3354 -1.46472 2.06277 1.3767 
-0.604545 -5.9059 -2.14498 0.327638 -6.58966 2.1674 14.3098 8.55041 1.28964 
-12.75 7.37614 0.928738 13.846 -2.39361 0.0304064 -12.567 -3.33854 -0.0542798 
-7.42915 -0.600881 -3.46704 -6.20708 -0.971213 -3.56846 -4.74266 -1.38115 -3.64037 
-2.91454 -1.74821 -3.545 -0.732027 -1.98397 -3.33767 1.60072 -2.04699 -3.22318 
3.81504 -1.92609 -3.22872 5.74021 -1.6294 -3.24954 7.36563 -1.1924 -3.21842 
-8.28665 0.145688 -3.49999 -7.99096 0.633396 -3.54358 -7.51914 1.17294 -3.47616 
-6.90163 1.67642 -3.38745 -6.18338 2.07236 -3.41502 -5.24567 2.343 -3.45058 
-4.12141 2.40918 -3.28146 -3.0913 2.24536 -2.94296 -2.23172 1.99371 -2.60671 
-8.03984 -0.910495 -3.31989 -7.48639 -1.59657 -3.24179 -6.80596 -2.33364 -3.1865 
-6.03806 -3.07112 -3.12804 -5.20202 -3.75608 -3.04055 -4.26627 -4.35689 -2.90252 
-3.29078 -4.86108 -2.72622 -2.35752 -5.27981 -2.54705 -1.46134 -5.62686 -2.35732 
-9.4016 0.327102 -3.3566 -10.3471 1.10923 -3.16739 -11.2731 2.06483 -2.85437 
-12.0815 3.0729 -2.49464 -12.7082 4.0578 -2.0559 -13.1432 5.09314 -1.51583 
-13.3531 6.09351 -0.96743 -13.3181 6.80455 -0.401919 -13.0942 7.18299 0.251356 
-9.26505 -0.385504 -3.30294 -10.0493 -0.535188 -3.16597 -10.7442 -0.740271 -2.9395 
-11.3342 -1.01456 -2.6404 -11.8817 -1.36008 -2.32779 -12.3466 -1.76022 -2.02018 
-12.6353 -2.20964 -1.65623 -12.7464 -2.67315 -1.16574 -12.7162 -3.06674 -0.593641 
8.44718 -0.328259 -3.11851 7.99624 0.0226337 -3.14099 7.40634 0.362501 -3.07197 
6.70433 0.655035 -2.88119 5.79077 0.872606 -2.69209 4.52959 0.933039 -2.55189 
2.99599 0.825095 -2.41267 1.38919 0.809307 -2.32525 -0.117708 1.14727 -2.32607 
8.15289 -1.34646 -3.17561 7.42186 -2.0349 -3.15551 6.53124 -2.73483 -3.07352 
5.48364 -3.42111 -3.0344 4.37671 -4.03768 -2.99866 3.28503 -4.55279 -2.84091 
2.20754 -4.9817 -2.62845 1.17691 -5.34985 -2.47333 0.239673 -5.65957 -2.3318 
9.91603 0.200011 -2.88174 11.0597 1.25932 -2.58781 12.0778 2.40452 -2.30761 
12.966 3.5474 -1.99188 13.8089 4.74731 -1.54052 14.543 6.04263 -1.04101 
14.953 7.24573 -0.56856 14.9506 8.11047 -0.0118158 14.6713 8.53443 0.657329 
9.73436 -0.528599 -2.98735 10.7248 -0.395091 -2.79811 11.6462 -0.283966 -2.50238 
12.431 -0.278558 -2.1829 13.0649 -0.458387 -1.89245 13.5429 -0.762439 -1.55434 
13.8776 -1.11527 -1.18507 14.0732 -1.52764 -0.832933 14.0727 -1.9778 -0.431787 
-6.8367 -0.0970591 3.37511 -5.56243 -0.584381 3.42397 -4.08467 -1.04077 3.45518 
-2.43414 -1.44976 3.29062 -0.621383 -1.76742 3.00365 1.32857 -1.88877 2.79774 
3.22376 -1.76055 2.59929 4.89388 -1.44796 2.35923 6.37259 -1.0432 2.22859 
-7.56557 0.724323 3.31532 -7.16167 1.10381 3.25791 -6.62435 1.45879 3.16708 
-5.94747 1.72711 3.01906 -5.25266 1.90902 2.78676 -4.57266 2.02729 2.45826 
-3.83201 2.08782 2.11956 -3.03171 2.1104 1.85773 -2.23193 2.10703 1.63453 
-7.66013 -0.232849 3.47476 -7.32707 -0.878631 3.60417 -6.82058 -1.6463 3.56705 
-6.01772 -2.57632 3.29207 -4.94883 -3.54892 3.0123 -3.75334 -4.39293 2.87665 
-2.52756 -5.09742 2.76773 -1.36837 -5.73543 2.61087 -0.404017 -6.26097 2.41428 
-8.74987 1.0849 3.32592 -9.56862 1.87921 3.20507 -10.3386 2.71398 2.98783 
-11.0514 3.5897 2.81074 -11.6936 4.50252 2.70385 -12.1995 5.38296 2.54486 
-12.5621 6.16375 2.32432 -12.7993 6.78602 2.01949 -12.864 7.18999 1.5356 
-8.87066 0.421107 3.36258 -9.88523 0.352834 3.23244 -10.8312 0.130472 2.98414 
-11.6387 -0.213277 2.67935 -12.3371 -0.650804 2.33208 -12.8374 -1.21004 1.91186 
-13.022 -1.8702 1.43041 -12.9636 -2.51425 0.930622 -12.7957 -3.01892 0.433326 
7.27451 -0.320628 2.20103 6.69203 -0.0924131 2.1348 5.93421 0.0652913 1.99908 
4.98806 0.162287 1.82384 3.88779 0.257324 1.70629 2.7004 0.431297 1.65004 
1.50804 0.705123 1.59817 0.384522 1.07127 1.54518 -0.61642 1.53534 1.47939 
7.29138 -1.20915 2.25887 6.82153 -1.85733 2.33857 6.3031 -2.52268 2.4665 
5.68758 -3.2066 2.55422 4.94739 -3.91274 2.56832 4.12578 -4.61641 2.55374 
3.25621 -5.28046 2.51607 2.31922 -5.86085 2.43258 1.32228 -6.30393 2.31152 
8.80687 0.0886742 2.2534 9.93646 0.913924 2.2076 11.0496 1.91052 2.18585 
12.1364 3.10214 2.33578 13.1128 4.40657 2.54531 13.8496 5.69167 2.63539 
14.3006 6.87204 2.62111 14.4729 7.82439 2.4312 14.436 8.3933 1.94932 
8.75961 -0.520097 2.28291 9.79056 -0.46077 2.28159 10.7639 -0.465448 2.24995 
11.6538 -0.592565 2.21639 12.4331 -0.86756 2.06973 13.0536 -1.25649 1.76007 
13.4921 -1.66786 1.4282 13.7728 -2.00393 1.07586 13.9007 -2.23628 0.591472 
-1.4584 2.11323 -2.14402 -1.47667 2.34552 -1.87486 -1.48996 2.49424 -1.52742 
-1.55749 2.63397 -1.14061 -1.62855 2.76423 -0.721517 -1.62564 2.81468 -0.249664 
-1.56352 2.75521 0.247155 -1.50544 2.59265 0.707428 -1.47779 2.34769 1.0872 
0.548944 1.36999 -2.07145 3.06679 1.54825 -1.77859 5.56588 2.4135 -1.54984 
7.38219 3.66564 -1.44629 8.72842 4.88402 -1.30235 10.1866 5.88044 -0.90973 
11.6658 6.7259 -0.357786 12.8179 7.51377 0.189686 13.6524 8.17789 0.738303 
-2.87329 2.78862 -2.41261 -4.14946 3.83666 -2.31891 -5.43936 4.60879 -2.04435 
-6.79902 5.24697 -1.64057 -8.10093 5.96487 -1.16055 -9.3081 6.6122 -0.68689 
-10.3699 7.07981 -0.270869 -11.2451 7.4143 0.132693 -12.0239 7.53873 0.547953 
-0.0864863 1.66291 1.11202 1.71961 1.42313 0.812255 4.04409 1.69774 0.702096 
6.57367 2.65899 0.879158 8.71291 4.00916 1.11809 10.277 5.30435 1.23063 
11.5307 6.38208 1.30351 12.6175 7.3056 1.40388 13.5318 8.07775 1.43266 
-2.69784 2.69552 1.40708 -3.94398 3.41505 1.43915 -5.20422 4.23714 1.53172 
-6.41294 5.16177 1.64881 -7.52173 6.07556 1.73519 -8.61343 6.85372 1.78967 
-9.75335 7.41912 1.77921 -10.8656 7.68343 1.63425 -11.8712 7.63381 1.33403 
-0.607946 -6.19879 -1.85051 -0.64758 -6.49355 -1.51234 -0.699565 -6.78184 -1.12054 
-0.712724 -7.06808 -0.597933 -0.66554 -7.29124 0.0225718 -0.574001 -7.31182 0.568119 
-0.427527 -7.14164 1.01042 -0.197206 -6.95775 1.44357 0.0822934 -6.8072 1.85175 
0.782543 -6.00627 -2.06062 2.2198 -6.10473 -2.02821 3.66462 -6.19665 -2.06705 
5.3403 -6.07859 -2.08469 7.41551 -5.53733 -1.95664 9.52151 -4.78388 -1.65432 
11.1611 -4.1551 -1.24938 12.3096 -3.61055 -0.823497 13.1773 -3.00956 -0.397722 
-1.96692 -5.95056 -2.05746 -3.40255 -5.97391 -1.94987 -4.88925 -5.98035 -1.83777 
-6.38068 -5.89107 -1.6839 -7.76995 -5.67142 -1.45301 -9.01798 -5.40411 -1.1972 
-10.1499 -5.05369 -0.939722 -11.1224 -4.53472 -0.647527 -11.9089 -3.93197 -0.340327 
1.62069 -6.65098 1.96656 3.12359 -6.64997 1.76209 4.83123 -6.5806 1.60047 
6.52389 -6.38149 1.43763 8.13336 -5.96234 1.19288 9.7203 -5.34154 0.905264 
11.1061 -4.64531 0.667031 12.1805 -3.92275 0.46286 13.0786 -3.15943 0.245698 
-1.14697 -6.64104 2.16233 -2.8704 -6.64959 2.09301 -4.7635 -6.61813 1.95921 
-6.60671 -6.52394 1.8077 -8.21383 -6.29173 1.62974 -9.50283 -5.86302 1.35476 
-10.4791 -5.27264 0.994716 -11.2553 -4.60614 0.626857 -11.9454 -3.94549 0.279605 
15.1152 8.55412 1.40029 15.7964 7.80882 1.35036 16.2068 6.3739 1.19103 
16.3857 4.80091 1.01482 16.3396 3.44584 0.851383 15.9816 2.09957 0.692332 
15.514 0.689422 0.532631 15.1011 -0.53698 0.360105 14.5683 -1.52547 0.183632 
-13.6832 6.87083 0.847073 -14.4903 6.16159 0.743095 -14.9814 5.28202 0.626521 
-15.184 4.16096 0.429832 -15.2147 2.78704 0.180145 -15.0759 1.27603 0.0222968 
-14.718 -0.228024 -0.0311936 -14.1149 -1.5406 -0.0633915 -13.3436 -2.55145 -0.0765771 
-7.12897 -0.200182 -3.61357 -6.68864 0.260573 -3.66704 -5.74592 -0.615024 -3.71308 
-6.08725 0.74934 -3.56097 -5.09524 -0.21998 -3.71379 -4.03886 -1.0774 -3.69082 
-5.4122 1.16164 -3.45051 -4.34272 0.14763 -3.57225 -3.13448 -0.785659 -3.61625 
-1.94037 -1.46218 -3.46907 -4.57229 1.43136 -3.4402 -3.52164 0.4222 -3.45236 
-2.12734 -0.53741 -3.49441 -0.76256 -1.19087 -3.36679 0.4694 -1.6286 -3.21956 
-3.426 1.50126 -3.32672 -2.41846 0.593001 -3.31296 -0.950555 -0.263401 -3.34422 
0.587672 -0.867595 -3.27428 1.85191 -1.2114 -3.1414 2.919 -1.55399 -3.15007 
-2.20253 1.36034 -2.99963 -1.06666 0.63964 -3.00525 0.445642 0.0772585 -3.05517 
2.06429 -0.366192 -3.08048 3.34479 -0.657237 -3.05773 4.30207 -0.933984 -3.10878 
5.10509 -1.29289 -3.21065 -1.13244 1.18219 -2.62507 0.222035 0.65241 -2.62865 
1.8107 0.430321 -2.6958 3.43524 0.27739 -2.78846 4.72861 0.0701593 -2.88104 
5.62299 -0.183698 -3.02943 6.33286 -0.513777 -3.17576 6.92455 -0.874195 -3.22907 
-9.21217 0.861534 -3.37204 -10.1358 1.77253 -3.07657 -8.87297 1.46535 -3.30608 
-10.9961 2.83581 -2.70387 -9.70898 2.4941 -2.93936 -8.32033 2.08117 -3.20937 
-11.7479 3.89094 -2.33343 -10.5055 3.61674 -2.56257 -9.0948 3.14406 -2.8642 
-7.63889 2.58366 -3.20789 -12.3119 4.92141 -1.87026 -11.2036 4.6678 -2.18479 
-9.84108 4.22818 -2.4675 -8.36999 3.58239 -2.86107 -6.81902 2.96312 -3.27363 
-12.5734 5.97054 -1.29407 -11.6086 5.67362 -1.67862 -10.3591 5.21471 -2.01231 
-8.95798 4.55316 -2.34704 -7.42494 3.87327 -2.81386 -5.75302 3.23795 -3.21266 
-12.5295 6.82132 -0.70636 -11.651 6.57564 -1.06705 -10.5262 6.11283 -1.4596 
-9.20822 5.43481 -1.8147 -7.81135 4.69319 -2.21607 -6.2458 4.06267 -2.68145 
-4.62503 3.29655 -2.97195 -12.3126 7.30332 -0.0998 -11.484 7.14629 -0.460157 
-10.4914 6.76672 -0.85085 -9.27098 6.17337 -1.267 -7.96241 5.40808 -1.69336 
-6.57233 4.71693 -2.13125 -5.10348 4.05733 -2.50733 -3.68518 3.10819 -2.67593 
-11.1181 7.62821 0.877193 -10.0479 7.51456 1.10051 -10.2755 7.3132 0.376584 
-8.82586 7.19809 1.21575 -9.09677 7.08784 0.547542 -9.30725 6.85875 -0.0775394 
-7.63491 6.64523 1.26688 -7.81703 6.76339 0.646971 -8.09184 6.55607 0.0458551 
-8.20915 6.3119 -0.557061 -6.53927 5.79926 1.27609 -6.62488 6.18756 0.698194 
-6.80734 6.16575 0.0841228 -6.98076 5.93743 -0.500626 -6.94185 5.63806 -1.10674 
-5.3536 4.79192 1.23092 -5.41971 5.29165 0.728757 -5.47109 5.53385 0.102066 
-5.56219 5.48334 -0.490448 -5.58541 5.26472 -1.05659 -5.51667 4.96024 -1.59724 
-4.04695 3.86449 1.16116 -4.09849 4.2997 0.740704 -4.09786 4.63475 0.166668 
[...]
POINT_DATA 1002
FIELD FieldData 4
_paraPhi 1 1002 double
6.2831853072 3.1415926536 6.2831853072 3.1415926536 4.7123889804 4.7123889804 1.5707963268 1.5707963268 3.6951670125 
5.7296109483 2.5880182947 0.5535743589 6.2831853072 6.2831853072 6.2831853072 6.2831853072 3.1415926536 3.1415926536 
3.1415926536 3.1415926536 3.1415926536 6.1053039672 5.898798347 5.6768734901 5.4599499503 5.2659633393 5.1032165617 
4.9713148346 4.8656852733 4.7809517865 0.17788134 0.38438696014 0.60631181711 0.82323535693 1.0172219679 1.1799687454 
1.3118704726 1.4175000338 1.5022335207 6.1892828907 6.1070320098 6.035312792 5.9728339911 5.9183214791 5.8706119594 
5.8286879411 5.7916808611 5.7588591896 0.093902416448 0.17615329733 0.2478725152 0.31035131605 0.36486382811 0.41257334776 
0.45449736604 0.4915044461 0.52432611754 3.3194739936 3.5259796137 3.7479044707 3.9648280105 4.1588146215 4.321561399 
4.4534631262 4.5590926874 4.6438261743 2.9637113136 2.7572056934 2.5352808365 2.3183572967 2.1243706857 1.9616239082 
1.829722181 1.7240926197 1.6393591329 3.23549507 3.3177459509 3.3894651688 3.4519439696 3.5064564817 3.5541660013 
3.5960900196 3.6330970997 3.6659187711 3.0476902371 2.9654393563 2.8937201384 2.8312413375 2.7767288255 2.7290193058 
2.6870952876 2.6500882075 2.617266536 6.2831853072 6.2831853072 6.2831853072 6.2831853072 3.1415926536 3.1415926536 
3.1415926536 3.1415926536 3.1415926536 6.1053039672 5.898798347 5.6768734901 5.4599499503 5.2659633393 5.1032165617 
4.9713148346 4.8656852733 4.7809517865 0.17788134 0.38438696014 0.60631181711 0.82323535693 1.0172219679 1.1799687454 
1.3118704726 1.4175000338 1.5022335207 6.1892828907 6.1070320098 6.035312792 5.9728339911 5.9183214791 5.8706119594 
5.8286879411 5.7916808611 5.7588591896 0.093902416448 0.17615329733 0.2478725152 0.31035131605 0.36486382811 0.41257334776 
0.45449736604 0.4915044461 0.52432611754 3.3194739936 3.5259796137 3.7479044707 3.9648280105 4.1588146215 4.321561399 
4.4534631262 4.5590926874 4.6438261743 2.9637113136 2.7572056934 2.5352808365 2.3183572967 2.1243706857 1.9616239082 
1.829722181 1.7240926197 1.6393591329 3.23549507 3.3177459509 3.3894651688 3.4519439696 3.5064564817 3.5541660013 
3.5960900196 3.6330970997 3.6659187711 3.0476902371 2.9654393563 2.8937201384 2.8312413375 2.7767288255 2.7290193058 
2.6870952876 2.6500882075 2.617266536 4.7123889804 4.7123889804 4.7123889804 4.7123889804 4.7123889804 4.7123889804 
4.7123889804 4.7123889804 4.7123889804 4.6087898617 4.4991390697 4.3857031936 4.2712800401 4.1588146215 4.0509635631 
3.94975894 3.8564636551 3.7716124825 4.8159880991 4.9256388911 5.0390747672 5.1534979207 5.2659633393 5.3738143976 
5.4750190208 5.5683143056 5.6531654782 4.6087898617 4.4991390697 4.3857031936 4.2712800401 4.1588146215 4.0509635631 
3.94975894 3.8564636551 3.7716124825 4.8159880991 4.9256388911 5.0390747672 5.1534979207 5.2659633393 5.3738143976 
5.4750190208 5.5683143056 5.6531654782 1.5707963268 1.5707963268 1.5707963268 1.5707963268 1.5707963268 1.5707963268 
1.5707963268 1.5707963268 1.5707963268 1.6743954455 1.7840462375 1.8974821136 2.0119052671 2.1243706857 2.232221744 
2.3334263672 2.426721652 2.5115728246 1.4671972081 1.3575464161 1.24411054 1.1296873865 1.0172219679 0.90937090954 
0.80816628637 0.71487100155 0.63001982895 1.6743954455 1.7840462375 1.8974821136 2.0119052671 2.1243706857 2.232221744 
2.3334263672 2.426721652 2.5115728246 1.4671972081 1.3575464161 1.24411054 1.1296873865 1.0172219679 0.90937090954 
0.80816628637 0.71487100155 0.63001982895 3.6007720849 3.4966939854 3.3839471039 3.2645756454 3.1415926536 3.0186096618 
2.8992382033 2.7864913217 2.6824132222 5.8240058758 5.9280839753 6.0408308569 6.1602023154 6.2831853072 0.12298299178 
0.2423544503 0.35510133185 0.45917943135 6.0560271438 5.7885595667 5.9702140275 5.5125918794 5.6029703303 5.7885595667 
5.2659633393 5.2659633393 5.2659633393 5.2659633393 5.0674903122 5.0120975802 4.9155579264 4.7123889804 4.1588146215 
4.9155579264 4.8353719722 4.7123889804 4.5092200343 4.1588146215 3.6362183941 4.8004512023 4.7123889804 4.5894059886 
4.4126803806 4.1588146215 3.8218076305 3.4545639333 4.7123889804 4.6243267584 4.5092200343 4.3572876485 4.1588146215 
3.9121860814 3.6362183941 3.368750817 6.0174235957 5.9434319871 5.8263323547 5.8809213739 5.7674481418 5.6279784266 
5.8278025282 5.718968232 5.5891129425 5.4372443565 5.7823484065 5.678536687 5.5575666702 5.4192596322 5.2659633393 
5.743164462 5.6444075337 5.5314983644 5.4046708639 5.2659633393 5.1195510325 5.7091357773 5.6152775188 5.5096229709 
5.3926039573 5.2659633393 5.1329233157 4.9978930058 5.6793730533 5.5901633916 5.4910209005 5.3824597928 5.2659633393 
5.1440684722 5.0201624502 4.8979782167 5.5683143056 5.4750190208 5.4750190208 5.3738143976 5.3738143976 5.3738143976 
5.2659633393 5.2659633393 5.2659633393 5.2659633393 5.1534979207 5.1534979207 5.1534979207 5.1534979207 5.1534979207 
5.0390747672 5.0390747672 5.0390747672 5.0390747672 5.0390747672 5.0390747672 4.9256388911 4.9256388911 4.9256388911 
4.9256388911 4.9256388911 4.9256388911 4.9256388911 4.8159880991 4.8159880991 4.8159880991 4.8159880991 4.8159880991 
4.8159880991 4.8159880991 4.8159880991 4.6087898617 4.6087898617 4.4991390697 4.6087898617 4.4991390697 4.3857031936 
4.6087898617 4.4991390697 4.3857031936 4.2712800401 4.6087898617 4.4991390697 4.3857031936 4.2712800401 4.1588146215 
4.6087898617 4.4991390697 4.3857031936 4.2712800401 4.1588146215 4.0509635631 4.6087898617 4.4991390697 4.3857031936 
4.2712800401 4.1588146215 4.0509635631 3.94975894 4.6087898617 4.4991390697 4.3857031936 4.2712800401 4.1588146215 
4.0509635631 3.94975894 3.8564636551 4.526799744 4.4046155105 4.426884955 4.2807094886 4.2918546451 4.3052269283 
4.1588146215 4.1588146215 4.1588146215 4.1588146215 4.042318168 4.0321740035 4.0201070968 4.0055183285 3.9875336042 
3.9337570603 3.9151549899 3.8932795963 3.8672112905 3.8356650183 3.7967995342 3.8346145692 3.809500442 3.7803704271 
3.7462412737 3.7058097288 3.657329819 3.5984456061 3.7454049075 3.7156421835 3.6816134988 3.6424295543 3.5969754326 
3.5438565869 3.4813459737 3.4073543651 3.5642842451 3.4524645613 3.5233842518 3.3320300872 3.403123212 3.4773852225 
3.20576226 3.2746326772 3.348015857 3.4255060145 3.0774230472 3.1415926536 3.2112816139 3.2864685043 3.3668817272 
2.95115522 3.00855263 3.0719036933 3.1415926536 3.2178377658 3.3005964304 2.8307207459 2.8800620952 2.9351694502 
2.9967168029 3.0653475414 3.1415926536 3.225752376 2.718901062 2.7598010554 2.8058000847 2.8576792927 2.91630358 
2.9825888767 3.0574329311 3.1415926536 3.5642842451 3.5233842518 3.4524645613 3.4773852225 3.403123212 3.3320300872 
3.4255060145 3.348015857 3.2746326772 3.20576226 3.3668817272 3.2864685043 3.2112816139 3.1415926536 3.0774230472 
3.3005964304 3.2178377658 3.1415926536 3.0719036933 3.00855263 2.95115522 3.225752376 3.1415926536 3.0653475414 
2.9967168029 2.9351694502 2.8800620952 2.8307207459 3.1415926536 3.0574329311 2.9825888767 2.91630358 2.8576792927 
2.8058000847 2.7598010554 2.718901062 4.526799744 4.426884955 4.4046155105 4.3052269283 4.2918546451 4.2807094886 
4.1588146215 4.1588146215 4.1588146215 4.1588146215 3.9875336042 4.0055183285 4.0201070968 4.0321740035 4.042318168 
3.7967995342 3.8356650183 3.8672112905 3.8932795963 3.9151549899 3.9337570603 3.5984456061 3.657329819 3.7058097288 
3.7462412737 3.7803704271 3.809500442 3.8346145692 3.4073543651 3.4813459737 3.5438565869 3.5969754326 3.6424295543 
3.6816134988 3.7156421835 3.7454049075 4.7123889804 4.8004512023 4.6243267584 4.9155579264 4.7123889804 4.5092200343 
5.0674903122 4.8353719722 4.5894059886 4.3572876485 5.2659633393 5.0120975802 4.7123889804 4.4126803806 4.1588146215 
5.5125918794 5.2659633393 4.9155579264 4.5092200343 4.1588146215 3.9121860814 5.7885595667 5.6029703303 5.2659633393 
4.7123889804 4.1588146215 3.8218076305 3.6362183941 6.0560271438 5.9702140275 5.7885595667 5.2659633393 4.1588146215 
3.6362183941 3.4545639333 3.368750817 0.22715816343 0.49462574053 0.3129712797 0.77059342779 0.68021497688 0.49462574053 
1.0172219679 1.0172219679 1.0172219679 1.0172219679 1.2156949949 1.271087727 1.3676273807 1.5707963268 2.1243706857 
1.3676273807 1.447813335 1.5707963268 1.7739652728 2.1243706857 2.6469669131 1.4827341049 1.5707963268 1.6937793186 
1.8705049266 2.1243706857 2.4613776767 2.8286213739 1.5707963268 1.6588585487 1.7739652728 1.9258976586 2.1243706857 
2.3709992258 2.6469669131 2.9144344902 1.7563855631 1.8785697967 1.8563003522 2.0024758186 1.9913306621 1.9779583789 
2.1243706857 2.1243706857 2.1243706857 2.1243706857 2.2408671392 2.2510113037 2.2630782103 2.2776669786 2.295651703 
2.3494282469 2.3680303173 2.3899057108 2.4159740166 2.4475202889 2.486385773 2.448570738 2.4736848652 2.5028148801 
2.5369440334 2.5773755784 2.6258554882 2.6847397011 2.5377803997 2.5675431237 2.6015718084 2.6407557529 2.6862098746 
2.7393287203 2.8018393335 2.8758309421 1.6743954455 1.6743954455 1.7840462375 1.6743954455 1.7840462375 1.8974821136 
1.6743954455 1.7840462375 1.8974821136 2.0119052671 1.6743954455 1.7840462375 1.8974821136 2.0119052671 2.1243706857 
1.6743954455 1.7840462375 1.8974821136 2.0119052671 2.1243706857 2.232221744 1.6743954455 1.7840462375 1.8974821136 
2.0119052671 2.1243706857 2.232221744 2.3334263672 1.6743954455 1.7840462375 1.8974821136 2.0119052671 2.1243706857 
2.232221744 2.3334263672 2.426721652 1.4671972081 1.3575464161 1.4671972081 1.24411054 1.3575464161 1.4671972081 
1.1296873865 1.24411054 1.3575464161 1.4671972081 1.0172219679 1.1296873865 1.24411054 1.3575464161 1.4671972081 
0.90937090954 1.0172219679 1.1296873865 1.24411054 1.3575464161 1.4671972081 0.80816628637 0.90937090954 1.0172219679 
1.1296873865 1.24411054 1.3575464161 1.4671972081 0.71487100155 0.80816628637 0.90937090954 1.0172219679 1.1296873865 
1.24411054 1.3575464161 1.4671972081 0.60381225391 0.57404952988 0.69302191562 0.54002084522 0.66790778838 0.79216440667 
0.50083690068 0.63877777351 0.77356233629 0.90072551443 0.45538277901 0.60464862014 0.75168694275 0.89058134991 1.0172219679 
0.40226393329 0.56421707518 0.72561863695 0.87851444325 1.0172219679 1.139116835 0.33975332011 0.51573716537 0.69407236469 
0.86392567495 1.0172219679 1.1502619915 1.2630228569 0.26576171152 0.45685295248 0.6552068806 0.84594095064 1.0172219679 
1.1636342747 1.2852923014 1.3852070904 0.22715816343 0.3129712797 0.49462574053 0.49462574053 0.68021497688 0.77059342779 
1.0172219679 1.0172219679 1.0172219679 1.0172219679 2.1243706857 1.5707963268 1.3676273807 1.271087727 1.2156949949 
2.6469669131 2.1243706857 1.7739652728 1.5707963268 1.447813335 1.3676273807 2.8286213739 2.4613776767 2.1243706857 
1.8705049266 1.6937793186 1.5707963268 1.4827341049 2.9144344902 2.6469669131 2.3709992258 2.1243706857 1.9258976586 
1.7739652728 1.6588585487 1.5707963268 1.7563855631 1.8563003522 1.8785697967 1.9779583789 1.9913306621 2.0024758186 
2.1243706857 2.1243706857 2.1243706857 2.1243706857 2.295651703 2.2776669786 2.2630782103 2.2510113037 2.2408671392 
2.486385773 2.4475202889 2.4159740166 2.3899057108 2.3680303173 2.3494282469 2.6847397011 2.6258554882 2.5773755784 
2.5369440334 2.5028148801 2.4736848652 2.448570738 2.8758309421 2.8018393335 2.7393287203 2.6862098746 2.6407557529 
2.6015718084 2.5675431237 2.5377803997 5.8604937156 5.901393709 5.9723133995 5.9473927383 6.0216547488 6.0927478736 
5.9992719463 6.0767621038 6.1501452836 6.2190157008 6.0578962336 6.1383094565 6.2134963469 0 0.064169606361 
6.1241815303 6.206940195 6.2831853072 0.069688960264 0.13304002361 0.19043743361 6.1990255847 0 0.07624511221 
0.14487585072 0.20642320337 0.26153055843 0.3108719077 0 0.084159722458 0.15900377685 0.22528907359 0.28391336087 
0.3357925689 0.38179159818 0.42269159155 5.8604937156 5.9723133995 5.901393709 6.0927478736 6.0216547488 5.9473927383 
6.2190157008 6.1501452836 6.0767621038 5.9992719463 0.064169606361 0 6.2134963469 6.1383094565 6.0578962336 
0.19043743361 0.13304002361 0.069688960264 6.2831853072 6.206940195 6.1241815303 0.3108719077 0.26153055843 0.20642320337 
0.14487585072 0.07624511221 6.2831853072 6.1990255847 0.42269159155 0.38179159818 0.3357925689 0.28391336087 0.22528907359 
0.15900377685 0.084159722458 0 5.6793730533 5.7091357773 5.5901633916 5.743164462 5.6152775188 5.4910209005 
5.7823484065 5.6444075337 5.5096229709 5.3824597928 5.8278025282 5.678536687 5.5314983644 5.3926039573 5.2659633393 
5.8809213739 5.718968232 5.5575666702 5.4046708639 5.2659633393 5.1440684722 5.9434319871 5.7674481418 5.5891129425 
5.4192596322 5.2659633393 5.1329233157 5.0201624502 6.0174235957 5.8263323547 5.6279784266 5.4372443565 5.2659633393 
5.1195510325 4.9978930058 4.8979782167 1.3852070904 1.2852923014 1.2630228569 1.1636342747 1.1502619915 1.139116835 
1.0172219679 1.0172219679 1.0172219679 1.0172219679 0.84594095064 0.86392567495 0.87851444325 0.89058134991 0.90072551443 
0.6552068806 0.69407236469 0.72561863695 0.75168694275 0.77356233629 0.79216440667 0.45685295248 0.51573716537 0.56421707518 
0.60464862014 0.63877777351 0.66790778838 0.69302191562 0.26576171152 0.33975332011 0.40226393329 0.45538277901 0.50083690068 
0.54002084522 0.57404952988 0.60381225391 
_paraPhiHalf 1 1002 double
0 3.1415926536 0 3.1415926536 1.5707963268 1.5707963268 1.5707963268 1.5707963268 2.5880182947 
0.5535743589 2.5880182947 0.5535743589 0 0 0 0 3.1415926536 3.1415926536 
3.1415926536 3.1415926536 3.1415926536 0.17788134 0.38438696014 0.60631181711 0.82323535693 1.0172219679 1.1799687454 
1.3118704726 1.4175000338 1.5022335207 0.17788134 0.38438696014 0.60631181711 0.82323535693 1.0172219679 1.1799687454 
1.3118704726 1.4175000338 1.5022335207 0.093902416448 0.17615329733 0.2478725152 0.31035131605 0.36486382811 0.41257334776 
0.45449736604 0.4915044461 0.52432611754 0.093902416448 0.17615329733 0.2478725152 0.31035131605 0.36486382811 0.41257334776 
0.45449736604 0.4915044461 0.52432611754 2.9637113136 2.7572056934 2.5352808365 2.3183572967 2.1243706857 1.9616239082 
1.829722181 1.7240926197 1.6393591329 2.9637113136 2.7572056934 2.5352808365 2.3183572967 2.1243706857 1.9616239082 
1.829722181 1.7240926197 1.6393591329 3.0476902371 2.9654393563 2.8937201384 2.8312413375 2.7767288255 2.7290193058 
2.6870952876 2.6500882075 2.617266536 3.0476902371 2.9654393563 2.8937201384 2.8312413375 2.7767288255 2.7290193058 
2.6870952876 2.6500882075 2.617266536 0 0 0 0 3.1415926536 3.1415926536 
3.1415926536 3.1415926536 3.1415926536 0.17788134 0.38438696014 0.60631181711 0.82323535693 1.0172219679 1.1799687454 
1.3118704726 1.4175000338 1.5022335207 0.17788134 0.38438696014 0.60631181711 0.82323535693 1.0172219679 1.1799687454 
1.3118704726 1.4175000338 1.5022335207 0.093902416448 0.17615329733 0.2478725152 0.31035131605 0.36486382811 0.41257334776 
0.45449736604 0.4915044461 0.52432611754 0.093902416448 0.17615329733 0.2478725152 0.31035131605 0.36486382811 0.41257334776 
0.45449736604 0.4915044461 0.52432611754 2.9637113136 2.7572056934 2.5352808365 2.3183572967 2.1243706857 1.9616239082 
1.829722181 1.7240926197 1.6393591329 2.9637113136 2.7572056934 2.5352808365 2.3183572967 2.1243706857 1.9616239082 
1.829722181 1.7240926197 1.6393591329 3.0476902371 2.9654393563 2.8937201384 2.8312413375 2.7767288255 2.7290193058 
2.6870952876 2.6500882075 2.617266536 3.0476902371 2.9654393563 2.8937201384 2.8312413375 2.7767288255 2.7290193058 
2.6870952876 2.6500882075 2.617266536 1.5707963268 1.5707963268 1.5707963268 1.5707963268 1.5707963268 1.5707963268 
1.5707963268 1.5707963268 1.5707963268 1.6743954455 1.7840462375 1.8974821136 2.0119052671 2.1243706857 2.232221744 
2.3334263672 2.426721652 2.5115728246 1.4671972081 1.3575464161 1.24411054 1.1296873865 1.0172219679 0.90937090954 
0.80816628637 0.71487100155 0.63001982895 1.6743954455 1.7840462375 1.8974821136 2.0119052671 2.1243706857 2.232221744 
2.3334263672 2.426721652 2.5115728246 1.4671972081 1.3575464161 1.24411054 1.1296873865 1.0172219679 0.90937090954 
0.80816628637 0.71487100155 0.63001982895 1.5707963268 1.5707963268 1.5707963268 1.5707963268 1.5707963268 1.5707963268 
1.5707963268 1.5707963268 1.5707963268 1.6743954455 1.7840462375 1.8974821136 2.0119052671 2.1243706857 2.232221744 
2.3334263672 2.426721652 2.5115728246 1.4671972081 1.3575464161 1.24411054 1.1296873865 1.0172219679 0.90937090954 
0.80816628637 0.71487100155 0.63001982895 1.6743954455 1.7840462375 1.8974821136 2.0119052671 2.1243706857 2.232221744 
2.3334263672 2.426721652 2.5115728246 1.4671972081 1.3575464161 1.24411054 1.1296873865 1.0172219679 0.90937090954 
0.80816628637 0.71487100155 0.63001982895 2.6824132222 2.7864913217 2.8992382033 3.0186096618 3.1415926536 3.0186096618 
2.8992382033 2.7864913217 2.6824132222 0.45917943135 0.35510133185 0.2423544503 0.12298299178 0 0.12298299178 
0.2423544503 0.35510133185 0.45917943135 0.22715816343 0.49462574053 0.3129712797 0.77059342779 0.68021497688 0.49462574053 
1.0172219679 1.0172219679 1.0172219679 1.0172219679 1.2156949949 1.271087727 1.3676273807 1.5707963268 2.1243706857 
1.3676273807 1.447813335 1.5707963268 1.7739652728 2.1243706857 2.6469669131 1.4827341049 1.5707963268 1.6937793186 
1.8705049266 2.1243706857 2.4613776767 2.8286213739 1.5707963268 1.6588585487 1.7739652728 1.9258976586 2.1243706857 
2.3709992258 2.6469669131 2.9144344902 0.26576171152 0.33975332011 0.45685295248 0.40226393329 0.51573716537 0.6552068806 
0.45538277901 0.56421707518 0.69407236469 0.84594095064 0.50083690068 0.60464862014 0.72561863695 0.86392567495 1.0172219679 
0.54002084522 0.63877777351 0.75168694275 0.87851444325 1.0172219679 1.1636342747 0.57404952988 0.66790778838 0.77356233629 
0.89058134991 1.0172219679 1.1502619915 1.2852923014 0.60381225391 0.69302191562 0.79216440667 0.90072551443 1.0172219679 
1.139116835 1.2630228569 1.3852070904 0.71487100155 0.80816628637 0.80816628637 0.90937090954 0.90937090954 0.90937090954 
1.0172219679 1.0172219679 1.0172219679 1.0172219679 1.1296873865 1.1296873865 1.1296873865 1.1296873865 1.1296873865 
1.24411054 1.24411054 1.24411054 1.24411054 1.24411054 1.24411054 1.3575464161 1.3575464161 1.3575464161 
1.3575464161 1.3575464161 1.3575464161 1.3575464161 1.4671972081 1.4671972081 1.4671972081 1.4671972081 1.4671972081 
1.4671972081 1.4671972081 1.4671972081 1.6743954455 1.6743954455 1.7840462375 1.6743954455 1.7840462375 1.8974821136 
1.6743954455 1.7840462375 1.8974821136 2.0119052671 1.6743954455 1.7840462375 1.8974821136 2.0119052671 2.1243706857 
1.6743954455 1.7840462375 1.8974821136 2.0119052671 2.1243706857 2.232221744 1.6743954455 1.7840462375 1.8974821136 
2.0119052671 2.1243706857 2.232221744 2.3334263672 1.6743954455 1.7840462375 1.8974821136 2.0119052671 2.1243706857 
2.232221744 2.3334263672 2.426721652 1.7563855631 1.8785697967 1.8563003522 2.0024758186 1.9913306621 1.9779583789 
2.1243706857 2.1243706857 2.1243706857 2.1243706857 2.2408671392 2.2510113037 2.2630782103 2.2776669786 2.295651703 
2.3494282469 2.3680303173 2.3899057108 2.4159740166 2.4475202889 2.486385773 2.448570738 2.4736848652 2.5028148801 
2.5369440334 2.5773755784 2.6258554882 2.6847397011 2.5377803997 2.5675431237 2.6015718084 2.6407557529 2.6862098746 
2.7393287203 2.8018393335 2.8758309421 2.718901062 2.8307207459 2.7598010554 2.95115522 2.8800620952 2.8058000847 
3.0774230472 3.00855263 2.9351694502 2.8576792927 3.0774230472 3.1415926536 3.0719036933 2.9967168029 2.91630358 
2.95115522 3.00855263 3.0719036933 3.1415926536 3.0653475414 2.9825888767 2.8307207459 2.8800620952 2.9351694502 
2.9967168029 3.0653475414 3.1415926536 3.0574329311 2.718901062 2.7598010554 2.8058000847 2.8576792927 2.91630358 
2.9825888767 3.0574329311 3.1415926536 2.718901062 2.7598010554 2.8307207459 2.8058000847 2.8800620952 2.95115522 
2.8576792927 2.9351694502 3.00855263 3.0774230472 2.91630358 2.9967168029 3.0719036933 3.1415926536 3.0774230472 
2.9825888767 3.0653475414 3.1415926536 3.0719036933 3.00855263 2.95115522 3.0574329311 3.1415926536 3.0653475414 