# vtk DataFile Version 5.1
vtk output
ASCII
DATASET POLYDATA
POINTS 1002 float
-11.0394 -1.01885 -1.23821 -17.372 -17.3535 -5.03912 -8.58723 -4.5301 4.7609 
-15.1979 -18.2205 0.263353 -11.5507 -9.5745 -2.57135 -9.3005 -10.1097 0.577945 
-18.5826 -7.75465 0.724627 -17.972 -10.0397 4.74426 -8.51578 -25.8424 -7.17473 
-0.78927 0.285187 0.297576 -19.8721 -22.6053 -2.64422 -11.4321 2.39915 4.09337 
-11.7289 -2.03613 -1.32773 -12.5388 -3.24781 -1.48683 -13.4428 -4.6613 -1.68502 
-14.3861 -6.37791 -1.86362 -15.3172 -8.48251 -2.09757 -16.1777 -10.7299 -2.54945 
-16.8644 -12.7489 -3.21434 -17.2742 -14.4748 -3.92267 -17.4095 -16.0057 -4.54311 
-10.7115 -1.293 -1.51222 -10.4165 -1.70501 -1.78005 -10.14 -2.33318 -2.00054 
-9.89078 -3.02711 -2.23303 -9.70411 -3.64245 -2.5081 -9.66927 -4.42072 -2.66687 
-9.92328 -5.61128 -2.63815 -10.4503 -7.04077 -2.57941 -11.0472 -8.40082 -2.57609 
-11.818 -1.36644 -1.02682 -12.6752 -1.78645 -0.824477 -13.5735 -2.33434 -0.600665 
-14.4617 -3.0102 -0.33821 -15.3203 -3.75288 -0.0823499 -16.1488 -4.53657 0.109564 
-16.9157 -5.35093 0.257617 -17.5783 -6.16688 0.418664 -18.1259 -6.97441 0.589197 
-10.1394 -0.238635 -1.35206 -9.12716 0.529382 -1.46121 -7.98813 1.20996 -1.4844 
-6.64952 1.73977 -1.42785 -5.0993 2.08052 -1.38234 -3.58622 2.15914 -1.30133 
-2.39823 1.93793 -1.03058 -1.56536 1.49409 -0.584107 -1.02725 0.922653 -0.111861 
-10.8962 -0.276728 -1.02281 -10.8036 0.483172 -0.741022 -10.725 1.16252 -0.333814 
-10.6719 1.71778 0.180241 -10.7138 2.22726 0.712755 -10.8918 2.64485 1.29053 
-11.1446 2.83812 2.01679 -11.3462 2.82734 2.82515 -11.4299 2.67358 3.54103 
-16.9155 -17.1842 -5.11336 -16.433 -16.9 -5.14245 -15.902 -16.5345 -5.10191 
-15.3068 -16.0759 -4.90976 -14.731 -15.462 -4.54777 -14.2622 -14.709 -4.09388 
-13.8453 -13.7773 -3.59364 -13.3233 -12.5132 -3.10277 -12.5588 -10.995 -2.74062 
-17.8585 -16.6194 -4.62841 -18.3102 -15.7396 -4.13856 -18.6867 -14.7433 -3.58433 
-18.9436 -13.6562 -2.97188 -19.0588 -12.5235 -2.29992 -19.0513 -11.428 -1.61491 
-18.9622 -10.4098 -0.977727 -18.8348 -9.45295 -0.379498 -18.7043 -8.55961 0.197872 
-16.9294 -18.5603 -5.53308 -16.2911 -19.8219 -5.99624 -15.4408 -21.1137 -6.43982 
-14.4476 -22.3421 -6.90883 -13.4226 -23.4018 -7.37039 -12.3612 -24.2949 -7.78318 
-11.1639 -25.029 -8.13622 -9.91841 -25.5269 -8.24506 -8.95444 -25.771 -7.89609 
-17.6001 -18.1915 -5.2129 -17.8475 -19.0223 -5.32142 -18.105 -19.873 -5.39479 
-18.3798 -20.7624 -5.42516 -18.6553 -21.619 -5.31448 -18.8865 -22.3172 -5.01617 
-19.123 -22.7773 -4.58533 -19.429 -22.9668 -4.03217 -19.7179 -22.8882 -3.35484 
-9.28413 -5.48338 4.7923 -10.0759 -6.57587 4.72836 -10.9732 -7.86395 4.53896 
-11.9571 -9.31303 4.21757 -12.9312 -10.8417 3.74171 -13.7587 -12.4294 3.08658 
-14.3794 -14.0433 2.32013 -14.8162 -15.5794 1.56108 -15.0857 -16.9701 0.869281 
-8.29283 -4.91613 4.48862 -8.07902 -5.36506 4.14936 -7.93193 -5.89662 3.77016 
-7.8133 -6.50406 3.37789 -7.7963 -7.12503 2.94417 -7.92144 -7.74187 2.47376 
-8.11889 -8.40362 2.01215 -8.39366 -9.07099 1.54278 -8.79588 -9.64193 1.04901 
-9.32848 -4.77668 5.05742 -10.0924 -5.12456 5.38162 -10.94 -5.57983 5.66906 
-12.0062 -6.18007 5.82144 -13.252 -6.94305 5.86148 -14.4849 -7.73012 5.84074 
-15.5877 -8.39686 5.69147 -16.5237 -8.9773 5.40251 -17.3017 -9.53137 5.06957 
-7.69414 -3.8267 4.51391 -6.74915 -3.09022 4.18817 -5.82312 -2.35556 3.76542 
-4.88586 -1.68902 3.29317 -3.88365 -1.1313 2.85576 -2.93129 -0.680329 2.43612 
-2.13556 -0.333453 1.95847 -1.4687 -0.076069 1.42199 -0.981304 0.125984 0.861895 
-8.38881 -3.68056 4.85522 -8.20804 -2.69282 4.93065 -8.07322 -1.63286 5.00132 
-8.09876 -0.60937 5.03452 -8.38566 0.332258 4.99244 -8.86584 1.17569 4.90805 
-9.42823 1.83893 4.80827 -10.0752 2.24301 4.64982 -10.783 2.40416 4.40507 
-14.7596 -17.9238 0.245984 -14.3027 -17.5189 0.26374 -13.8655 -16.9368 0.279448 
-13.4717 -16.1249 0.302407 -13.0637 -15.1075 0.411722 -12.5307 -13.9458 0.618887 
-11.827 -12.7371 0.798833 -10.9986 -11.6394 0.841754 -10.1286 -10.7668 0.750713 
-15.5931 -17.703 0.691308 -16.0012 -17.0743 1.17568 -16.4139 -16.3634 1.67967 
-16.7811 -15.6701 2.23829 -17.1122 -14.9285 2.84357 -17.4606 -13.9807 3.34959 
-17.7569 -12.9224 3.72775 -17.9109 -11.9256 4.09994 -17.9605 -10.9801 4.46896 
-14.9117 -19.3219 -0.332198 -14.4886 -20.5534 -0.960098 -13.9394 -21.8066 -1.66044 
-13.2336 -22.9843 -2.4285 -12.3551 -24.1229 -3.15448 -11.3798 -25.176 -3.7993 
-10.3766 -25.9232 -4.51498 -9.42528 -26.2386 -5.41598 -8.7405 -26.1707 -6.38115 
-15.4828 -19.1326 -0.0388237 -15.7641 -20.0621 -0.286533 -16.092 -20.9409 -0.489231 
-16.5746 -21.6779 -0.71109 -17.2437 -22.1985 -1.00231 -17.9515 -22.5151 -1.33245 
-18.5616 -22.7142 -1.62911 -19.0874 -22.8213 -1.9004 -19.5397 -22.7891 -2.23191 
-11.1448 -9.4642 -2.46697 -10.735 -9.35512 -2.29021 -10.2913 -9.2676 -2.07254 
-9.82047 -9.24996 -1.82011 -9.43863 -9.35105 -1.52908 -9.21452 -9.55187 -1.20293 
-9.09926 -9.7684 -0.805919 -9.07793 -9.92782 -0.33121 -9.15898 -10.0283 0.150093 
-12.4708 -11.6654 -2.74225 -12.8349 -14.1166 -3.33684 -12.5661 -16.4976 -4.32565 
-11.862 -18.3752 -5.28884 -11.0999 -19.9674 -5.91285 -10.4897 -21.6213 -6.37301 
-9.86462 -23.0882 -6.8405 -9.14199 -24.1783 -7.18969 -8.60575 -25.0779 -7.30142 
-9.92245 -7.78971 -2.62153 -8.07826 -6.37977 -2.71042 -6.53022 -5.15859 -2.55186 
-5.30074 -3.96654 -2.19088 -4.05887 -2.98075 -1.88153 -2.84368 -2.19319 -1.6363 
-1.88287 -1.40629 -1.29768 -1.19842 -0.698504 -0.818788 -0.815852 -0.163531 -0.259117 
-10.4174 -11.0748 0.230522 -11.5247 -12.7012 -0.286352 -12.1223 -15.2256 -1.164 
-11.8727 -18.0464 -2.31754 -11.0755 -20.2899 -3.38702 -10.2675 -21.9678 -4.23653 
-9.57071 -23.4491 -4.98411 -8.92536 -24.6213 -5.71016 -8.50005 -25.3675 -6.45319 
-8.17498 -9.24868 0.642841 -7.04039 -8.26156 0.693599 -5.82958 -7.17759 0.685326 
-4.5692 -6.17299 0.603727 -3.44579 -5.22132 0.536298 -2.51544 -4.14562 0.520867 
-1.70468 -2.95682 0.491252 -1.07492 -1.78405 0.421923 -0.761402 -0.694813 0.350151 
-18.7698 -7.75677 1.11343 -18.9457 -7.75248 1.56386 -19.1068 -7.72989 2.11611 
-19.231 -7.77687 2.74688 -19.2414 -8.03511 3.33996 -19.108 -8.46558 3.79114 
-18.9035 -8.90237 4.12086 -18.6603 -9.30865 4.40122 -18.347 -9.70463 4.62421 
-19.1273 -9.01904 0.477944 -19.8042 -10.2831 0.141111 -20.5399 -11.4901 -0.238308 
-21.0581 -12.9231 -0.690713 -21.2188 -14.9658 -1.31085 -21.216 -17.3622 -2.00097 
-21.1377 -19.3851 -2.48758 -20.8558 -20.7733 -2.66651 -20.3858 -21.7775 -2.66841 
-18.1796 -6.47956 1.13238 -17.705 -5.12432 1.52244 -17.1426 -3.74619 1.9533 
-16.5272 -2.42443 2.41629 -15.8763 -1.20923 2.82029 -15.1257 -0.119811 3.18425 
-14.2403 0.75812 3.55019 -13.296 1.4008 3.8367 -12.3605 1.92924 4.00279 
-18.6701 -11.1616 4.26516 -19.4242 -12.42 3.71427 -20.0358 -13.7855 3.07434 
-20.4304 -15.2056 2.3631 -20.7163 -16.6868 1.55476 -20.8809 -18.227 0.638268 
-20.8187 -19.6351 -0.280666 -20.5726 -20.7673 -1.12969 -20.2433 -21.7288 -1.92091 
-17.5889 -8.7331 5.15857 -17.1778 -7.24719 5.55343 -16.6228 -5.58868 5.84221 
-15.8877 -3.82826 5.93438 -15.0656 -2.11428 5.87959 -14.2381 -0.698338 5.75433 
-13.4447 0.29078 5.48286 -12.7077 1.04318 5.03931 -12.0322 1.75433 4.5488 
-9.03647 -26.4201 -7.35958 -10.1208 -26.7019 -7.21793 -11.6791 -26.647 -6.61081 
-13.4363 -26.5399 -5.77884 -15.0269 -26.4081 -5.0877 -16.3576 -25.9547 -4.54531 
-17.5487 -25.2538 -4.02136 -18.5448 -24.4866 -3.52544 -19.2836 -23.5911 -3.07125 
-1.14641 1.16738 0.611847 -1.83298 2.025 0.912343 -2.78601 2.66047 1.17274 
-3.90063 3.1126 1.47912 -5.14256 3.498 1.90998 -6.5344 3.69775 2.43299 
-7.98062 3.65173 2.98437 -9.30792 3.42042 3.47459 -10.449 2.98769 3.83427 
-11.4987 -2.44008 -1.6168 -11.301 -3.019 -1.89596 -12.4021 -3.79885 -1.79671 
-11.1194 -3.71916 -2.15416 -12.3006 -4.51073 -2.08197 -13.3927 -5.40104 -1.98019 
-11 -4.3872 -2.42986 -12.2679 -5.30534 -2.3343 -13.4223 -6.3362 -2.23455 
-14.4363 -7.4227 -2.14258 -11.0389 -5.22438 -2.62446 -12.3834 -6.28798 -2.55004 
-13.5805 -7.50323 -2.46313 -14.5865 -8.71427 -2.4298 -15.434 -9.81571 -2.46424 
-11.3282 -6.55748 -2.61429 -12.6674 -7.7541 -2.64988 -13.8224 -9.04671 -2.70289 
-14.7662 -10.2592 -2.78841 -15.5498 -11.2866 -2.92543 -16.2364 -12.1195 -3.07542 
-11.8159 -8.19266 -2.5481 -13.0283 -9.54363 -2.68036 -14.0047 -10.8398 -2.94212 
-14.8006 -11.9426 -3.23752 -15.5075 -12.8116 -3.5095 -16.1559 -13.4965 -3.70858 
-16.7419 -14.0556 -3.83654 -12.2777 -9.71655 -2.60407 -13.2859 -11.1838 -2.82406 
-14.0212 -12.4685 -3.22075 -14.6098 -13.4679 -3.67906 -15.2077 -14.2405 -4.09558 
-15.8396 -14.8301 -4.37997 -16.4258 -15.3122 -4.50555 -16.9408 -15.7175 -4.54525 
-9.71118 -0.482518 -1.65962 -8.58265 0.271299 -1.78981 -9.30135 -0.911856 -1.91571 
-7.29195 0.885339 -1.80471 -8.03601 -0.195826 -2.02128 -8.92526 -1.60048 -2.09093 
-5.77433 1.31369 -1.73374 -6.5895 0.368279 -2.01935 -7.56381 -0.924441 -2.16045 
-8.61815 -2.35629 -2.30277 -4.16605 1.48475 -1.6656 -4.98789 0.687703 -1.95174 
-6.06055 -0.414325 -2.16178 -7.24119 -1.7697 -2.35338 -8.38425 -3.05774 -2.56425 
-2.81121 1.33623 -1.51867 -3.50707 0.651863 -1.84999 -4.54688 -0.250163 -2.09047 
-5.82294 -1.4215 -2.32557 -7.04044 -2.66093 -2.56697 -8.31477 -3.94221 -2.69815 
-1.84457 0.94771 -1.18143 -2.41132 0.315583 -1.62684 -3.30102 -0.478479 -1.92327 
-4.53135 -1.44983 -2.17206 -5.81 -2.5475 -2.43819 -7.03817 -3.73862 -2.6625 
-8.59007 -5.17034 -2.69563 -1.1837 0.432941 -0.720736 -1.66791 -0.155127 -1.25598 
-2.43691 -0.911582 -1.64639 -3.53131 -1.76724 -1.9199 -4.81354 -2.69686 -2.17428 
-6.0264 -3.79532 -2.47771 -7.39732 -5.05153 -2.69488 -9.19547 -6.54264 -2.6743 
-0.920695 -1.20861 -0.213705 -1.39789 -2.44271 -0.17566 -1.46887 -1.87474 -0.797741 
-2.16373 -3.75202 -0.153829 -2.09446 -3.20669 -0.79358 -2.32919 -2.64527 -1.28278 
-3.08081 -4.91036 -0.107029 -2.97552 -4.43857 -0.747054 -3.10079 -3.87028 -1.24633 
-3.47901 -3.36003 -1.5963 -4.17244 -5.89206 0.00281299 -4.03157 -5.50363 -0.627166 
-4.09891 -5.04806 -1.17051 -4.37035 -4.60947 -1.58955 -4.8002 -4.25581 -1.91001 
[...]
POINT_DATA 1002
FIELD FieldData 4
_paraPhi 1 1002 double
6.2831853072 3.1415926536 6.2831853072 3.1415926536 4.7123889804 4.7123889804 1.5707963268 1.5707963268 3.6951670125 
5.7296109483 2.5880182947 0.5535743589 6.2831853072 6.2831853072 6.2831853072 6.2831853072 3.1415926536 3.1415926536 
3.1415926536 3.1415926536 3.1415926536 6.1053039672 5.898798347 5.6768734901 5.4599499503 5.2659633393 5.1032165617 
4.9713148346 4.8656852733 4.7809517865 0.17788134 0.38438696014 0.60631181711 0.82323535693 1.0172219679 1.1799687454 
1.3118704726 1.4175000338 1.5022335207 6.1892828907 6.1070320098 6.035312792 5.9728339911 5.9183214791 5.8706119594 
5.8286879411 5.7916808611 5.7588591896 0.093902416448 0.17615329733 0.2478725152 0.31035131605 0.36486382811 0.41257334776 
0.45449736604 0.4915044461 0.52432611754 3.3194739936 3.5259796137 3.7479044707 3.9648280105 4.1588146215 4.321561399 
4.4534631262 4.5590926874 4.6438261743 2.9637113136 2.7572056934 2.5352808365 2.3183572967 2.1243706857 1.9616239082 
1.829722181 1.7240926197 1.6393591329 3.23549507 3.3177459509 3.3894651688 3.4519439696 3.5064564817 3.5541660013 
3.5960900196 3.6330970997 3.6659187711 3.0476902371 2.9654393563 2.8937201384 2.8312413375 2.7767288255 2.7290193058 
2.6870952876 2.6500882075 2.617266536 6.2831853072 6.2831853072 6.2831853072 6.2831853072 3.1415926536 3.1415926536 
3.1415926536 3.1415926536 3.1415926536 6.1053039672 5.898798347 5.6768734901 5.4599499503 5.2659633393 5.1032165617 
4.9713148346 4.8656852733 4.7809517865 0.17788134 0.38438696014 0.60631181711 0.82323535693 1.0172219679 1.1799687454 
1.3118704726 1.4175000338 1.5022335207 6.1892828907 6.1070320098 6.035312792 5.9728339911 5.9183214791 5.8706119594 
5.8286879411 5.7916808611 5.7588591896 0.093902416448 0.17615329733 0.2478725152 0.31035131605 0.36486382811 0.41257334776 
0.45449736604 0.4915044461 0.52432611754 3.3194739936 3.5259796137 3.7479044707 3.9648280105 4.1588146215 4.321561399 
4.4534631262 4.5590926874 4.6438261743 2.9637113136 2.7572056934 2.5352808365 2.3183572967 2.1243706857 1.9616239082 
1.829722181 1.7240926197 1.6393591329 3.23549507 3.3177459509 3.3894651688 3.4519439696 3.5064564817 3.5541660013 
3.5960900196 3.6330970997 3.6659187711 3.0476902371 2.9654393563 2.8937201384 2.8312413375 2.7767288255 2.7290193058 
2.6870952876 2.6500882075 2.617266536 4.7123889804 4.7123889804 4.7123889804 4.7123889804 4.7123889804 4.7123889804 
4.7123889804 4.7123889804 4.7123889804 4.6087898617 4.4991390697 4.3857031936 4.2712800401 4.1588146215 4.0509635631 
3.94975894 3.8564636551 3.7716124825 4.8159880991 4.9256388911 5.0390747672 5.1534979207 5.2659633393 5.3738143976 
5.4750190208 5.5683143056 5.6531654782 4.6087898617 4.4991390697 4.3857031936 4.2712800401 4.1588146215 4.0509635631 
3.94975894 3.8564636551 3.7716124825 4.8159880991 4.9256388911 5.0390747672 5.1534979207 5.2659633393 5.3738143976 
5.4750190208 5.5683143056 5.6531654782 1.5707963268 1.5707963268 1.5707963268 1.5707963268 1.5707963268 1.5707963268 
1.5707963268 1.5707963268 1.5707963268 1.6743954455 1.7840462375 1.8974821136 2.0119052671 2.1243706857 2.232221744 
2.3334263672 2.426721652 2.5115728246 1.4671972081 1.3575464161 1.24411054 1.1296873865 1.0172219679 0.90937090954 
0.80816628637 0.71487100155 0.63001982895 1.6743954455 1.7840462375 1.8974821136 2.0119052671 2.1243706857 2.232221744 
2.3334263672 2.426721652 2.5115728246 1.4671972081 1.3575464161 1.24411054 1.1296873865 1.0172219679 0.90937090954 
0.80816628637 0.71487100155 0.63001982895 3.6007720849 3.4966939854 3.3839471039 3.2645756454 3.1415926536 3.0186096618 
2.8992382033 2.7864913217 2.6824132222 5.8240058758 5.9280839753 6.0408308569 6.1602023154 6.2831853072 0.12298299178 
0.2423544503 0.35510133185 0.45917943135 6.0560271438 5.7885595667 5.9702140275 5.5125918794 5.6029703303 5.7885595667 
5.2659633393 5.2659633393 5.2659633393 5.2659633393 5.0674903122 5.0120975802 4.9155579264 4.7123889804 4.1588146215 
4.9155579264 4.8353719722 4.7123889804 4.5092200343 4.1588146215 3.6362183941 4.8004512023 4.7123889804 4.5894059886 
4.4126803806 4.1588146215 3.8218076305 3.4545639333 4.7123889804 4.6243267584 4.5092200343 4.3572876485 4.1588146215 
3.9121860814 3.6362183941 3.368750817 6.0174235957 5.9434319871 5.8263323547 5.8809213739 5.7674481418 5.6279784266 
5.8278025282 5.718968232 5.5891129425 5.4372443565 5.7823484065 5.678536687 5.5575666702 5.4192596322 5.2659633393 
5.743164462 5.6444075337 5.5314983644 5.4046708639 5.2659633393 5.1195510325 5.7091357773 5.6152775188 5.5096229709 
5.3926039573 5.2659633393 5.1329233157 4.9978930058 5.6793730533 5.5901633916 5.4910209005 5.3824597928 5.2659633393 
5.1440684722 5.0201624502 4.8979782167 5.5683143056 5.4750190208 5.4750190208 5.3738143976 5.3738143976 5.3738143976 
5.2659633393 5.2659633393 5.2659633393 5.2659633393 5.1534979207 5.1534979207 5.1534979207 5.1534979207 5.1534979207 
5.0390747672 5.0390747672 5.0390747672 5.0390747672 5.0390747672 5.0390747672 4.9256388911 4.9256388911 4.9256388911 
4.9256388911 4.9256388911 4.9256388911 4.9256388911 4.8159880991 4.8159880991 4.8159880991 4.8159880991 4.8159880991 
4.8159880991 4.8159880991 4.8159880991 4.6087898617 4.6087898617 4.4991390697 4.6087898617 4.4991390697 4.3857031936 
4.6087898617 4.4991390697 4.3857031936 4.2712800401 4.6087898617 4.4991390697 4.3857031936 4.2712800401 4.1588146215 
4.6087898617 4.4991390697 4.3857031936 4.2712800401 4.1588146215 4.0509635631 4.6087898617 4.4991390697 4.3857031936 
4.2712800401 4.1588146215 4.0509635631 3.94975894 4.6087898617 4.4991390697 4.3857031936 4.2712800401 4.1588146215 
4.0509635631 3.94975894 3.8564636551 4.526799744 4.4046155105 4.426884955 4.2807094886 4.2918546451 4.3052269283 
4.1588146215 4.1588146215 4.1588146215 4.1588146215 4.042318168 4.0321740035 4.0201070968 4.0055183285 3.9875336042 
3.9337570603 3.9151549899 3.8932795963 3.8672112905 3.8356650183 3.7967995342 3.8346145692 3.809500442 3.7803704271 
3.7462412737 3.7058097288 3.657329819 3.5984456061 3.7454049075 3.7156421835 3.6816134988 3.6424295543 3.5969754326 
3.5438565869 3.4813459737 3.4073543651 3.5642842451 3.4524645613 3.5233842518 3.3320300872 3.403123212 3.4773852225 
3.20576226 3.2746326772 3.348015857 3.4255060145 3.0774230472 3.1415926536 3.2112816139 3.2864685043 3.3668817272 
2.95115522 3.00855263 3.0719036933 3.1415926536 3.2178377658 3.3005964304 2.8307207459 2.8800620952 2.9351694502 
2.9967168029 3.0653475414 3.1415926536 3.225752376 2.718901062 2.7598010554 2.8058000847 2.8576792927 2.91630358 
2.9825888767 3.0574329311 3.1415926536 3.5642842451 3.5233842518 3.4524645613 3.4773852225 3.403123212 3.3320300872 
3.4255060145 3.348015857 3.2746326772 3.20576226 3.3668817272 3.2864685043 3.2112816139 3.1415926536 3.0774230472 
3.3005964304 3.2178377658 3.1415926536 3.0719036933 3.00855263 2.95115522 3.225752376 3.1415926536 3.0653475414 
2.9967168029 2.9351694502 2.8800620952 2.8307207459 3.1415926536 3.0574329311 2.9825888767 2.91630358 2.8576792927 
2.8058000847 2.7598010554 2.718901062 4.526799744 4.426884955 4.4046155105 4.3052269283 4.2918546451 4.2807094886 
4.1588146215 4.1588146215 4.1588146215 4.1588146215 3.9875336042 4.0055183285 4.0201070968 4.0321740035 4.042318168 
3.7967995342 3.8356650183 3.8672112905 3.8932795963 3.9151549899 3.9337570603 3.5984456061 3.657329819 3.7058097288 
3.7462412737 3.7803704271 3.809500442 3.8346145692 3.4073543651 3.4813459737 3.5438565869 3.5969754326 3.6424295543 
3.6816134988 3.7156421835 3.7454049075 4.7123889804 4.8004512023 4.6243267584 4.9155579264 4.7123889804 4.5092200343 
5.0674903122 4.8353719722 4.5894059886 4.3572876485 5.2659633393 5.0120975802 4.7123889804 4.4126803806 4.1588146215 
5.5125918794 5.2659633393 4.9155579264 4.5092200343 4.1588146215 3.9121860814 5.7885595667 5.6029703303 5.2659633393 
4.7123889804 4.1588146215 3.8218076305 3.6362183941 6.0560271438 5.9702140275 5.7885595667 5.2659633393 4.1588146215 
3.6362183941 3.4545639333 3.368750817 0.22715816343 0.49462574053 0.3129712797 0.77059342779 0.68021497688 0.49462574053 
1.0172219679 1.0172219679 1.0172219679 1.0172219679 1.2156949949 1.271087727 1.3676273807 1.5707963268 2.1243706857 
1.3676273807 1.447813335 1.5707963268 1.7739652728 2.1243706857 2.6469669131 1.4827341049 1.5707963268 1.6937793186 
1.8705049266 2.1243706857 2.4613776767 2.8286213739 1.5707963268 1.6588585487 1.7739652728 1.9258976586 2.1243706857 
2.3709992258 2.6469669131 2.9144344902 1.7563855631 1.8785697967 1.8563003522 2.0024758186 1.9913306621 1.9779583789 
2.1243706857 2.1243706857 2.1243706857 2.1243706857 2.2408671392 2.2510113037 2.2630782103 2.2776669786 2.295651703 
2.3494282469 2.3680303173 2.3899057108 2.4159740166 2.4475202889 2.486385773 2.448570738 2.4736848652 2.5028148801 
2.5369440334 2.5773755784 2.6258554882 2.6847397011 2.5377803997 2.5675431237 2.6015718084 2.6407557529 2.6862098746 
2.7393287203 2.8018393335 2.8758309421 1.6743954455 1.6743954455 1.7840462375 1.6743954455 1.7840462375 1.8974821136 
1.6743954455 1.7840462375 1.8974821136 2.0119052671 1.6743954455 1.7840462375 1.8974821136 2.0119052671 2.1243706857 
1.6743954455 1.7840462375 1.8974821136 2.0119052671 2.1243706857 2.232221744 1.6743954455 1.7840462375 1.8974821136 
2.0119052671 2.1243706857 2.232221744 2.3334263672 1.6743954455 1.7840462375 1.8974821136 2.0119052671 2.1243706857 
2.232221744 2.3334263672 2.426721652 1.4671972081 1.3575464161 1.4671972081 1.24411054 1.3575464161 1.4671972081 
1.1296873865 1.24411054 1.3575464161 1.4671972081 1.0172219679 1.1296873865 1.24411054 1.3575464161 1.4671972081 
0.90937090954 1.0172219679 1.1296873865 1.24411054 1.3575464161 1.4671972081 0.80816628637 0.90937090954 1.0172219679 
1.1296873865 1.24411054 1.3575464161 1.4671972081 0.71487100155 0.80816628637 0.90937090954 1.0172219679 1.1296873865 
1.24411054 1.3575464161 1.4671972081 0.60381225391 0.57404952988 0.69302191562 0.54002084522 0.66790778838 0.79216440667 
0.50083690068 0.63877777351 0.77356233629 0.90072551443 0.45538277901 0.60464862014 0.75168694275 0.89058134991 1.0172219679 
0.40226393329 0.56421707518 0.72561863695 0.87851444325 1.0172219679 1.139116835 0.33975332011 0.51573716537 0.69407236469 
0.86392567495 1.0172219679 1.1502619915 1.2630228569 0.26576171152 0.45685295248 0.6552068806 0.84594095064 1.0172219679 
1.1636342747 1.2852923014 1.3852070904 0.22715816343 0.3129712797 0.49462574053 0.49462574053 0.68021497688 0.77059342779 
1.0172219679 1.0172219679 1.0172219679 1.0172219679 2.1243706857 1.5707963268 1.3676273807 1.271087727 1.2156949949 
2.6469669131 2.1243706857 1.7739652728 1.5707963268 1.447813335 1.3676273807 2.8286213739 2.4613776767 2.1243706857 
1.8705049266 1.6937793186 1.5707963268 1.4827341049 2.9144344902 2.6469669131 2.3709992258 2.1243706857 1.9258976586 
1.7739652728 1.6588585487 1.5707963268 1.7563855631 1.8563003522 1.8785697967 1.9779583789 1.9913306621 2.0024758186 
2.1243706857 2.1243706857 2.1243706857 2.1243706857 2.295651703 2.2776669786 2.2630782103 2.2510113037 2.2408671392 
2.486385773 2.4475202889 2.4159740166 2.3899057108 2.3680303173 2.3494282469 2.6847397011 2.6258554882 2.5773755784 
2.5369440334 2.5028148801 2.4736848652 2.448570738 2.8758309421 2.8018393335 2.7393287203 2.6862098746 2.6407557529 
2.6015718084 2.5675431237 2.5377803997 5.8604937156 5.901393709 5.9723133995 5.9473927383 6.0216547488 6.0927478736 
5.9992719463 6.0767621038 6.1501452836 6.2190157008 6.0578962336 6.1383094565 6.2134963469 0 0.064169606361 
6.1241815303 6.206940195 6.2831853072 0.069688960264 0.13304002361 0.19043743361 6.1990255847 0 0.07624511221 
0.14487585072 0.20642320337 0.26153055843 0.3108719077 0 0.084159722458 0.15900377685 0.22528907359 0.28391336087 
0.3357925689 0.38179159818 0.42269159155 5.8604937156 5.9723133995 5.901393709 6.0927478736 6.0216547488 5.9473927383 
6.2190157008 6.1501452836 6.0767621038 5.9992719463 0.064169606361 0 6.2134963469 6.1383094565 6.0578962336 
0.19043743361 0.13304002361 0.069688960264 6.2831853072 6.206940195 6.1241815303 0.3108719077 0.26153055843 0.20642320337 
0.14487585072 0.07624511221 6.2831853072 6.1990255847 0.42269159155 0.38179159818 0.3357925689 0.28391336087 0.22528907359 
0.15900377685 0.084159722458 0 5.6793730533 5.7091357773 5.5901633916 5.743164462 5.6152775188 5.4910209005 
5.7823484065 5.6444075337 5.5096229709 5.3824597928 5.8278025282 5.678536687 5.5314983644 5.3926039573 5.2659633393 
5.8809213739 5.718968232 5.5575666702 5.4046708639 5.2659633393 5.1440684722 5.9434319871 5.7674481418 5.5891129425 
5.4192596322 5.2659633393 5.1329233157 5.0201624502 6.0174235957 5.8263323547 5.6279784266 5.4372443565 5.2659633393 
5.1195510325 4.9978930058 4.8979782167 1.3852070904 1.2852923014 1.2630228569 1.1636342747 1.1502619915 1.139116835 
1.0172219679 1.0172219679 1.0172219679 1.0172219679 0.84594095064 0.86392567495 0.87851444325 0.89058134991 0.90072551443 
0.6552068806 0.69407236469 0.72561863695 0.75168694275 0.77356233629 0.79216440667 0.45685295248 0.51573716537 0.56421707518 
0.60464862014 0.63877777351 0.66790778838 0.69302191562 0.26576171152 0.33975332011 0.40226393329 0.45538277901 0.50083690068 
0.54002084522 0.57404952988 0.60381225391 
_paraPhiHalf 1 1002 double
0 3.1415926536 0 3.1415926536 1.5707963268 1.5707963268 1.5707963268 1.5707963268 2.5880182947 
0.5535743589 2.5880182947 0.5535743589 0 0 0 0 3.1415926536 3.1415926536 
3.1415926536 3.1415926536 3.1415926536 0.17788134 0.38438696014 0.60631181711 0.82323535693 1.0172219679 1.1799687454 
1.3118704726 1.4175000338 1.5022335207 0.17788134 0.38438696014 0.60631181711 0.82323535693 1.0172219679 1.1799687454 
1.3118704726 1.4175000338 1.5022335207 0.093902416448 0.17615329733 0.2478725152 0.31035131605 0.36486382811 0.41257334776 
0.45449736604 0.4915044461 0.52432611754 0.093902416448 0.17615329733 0.2478725152 0.31035131605 0.36486382811 0.41257334776 
0.45449736604 0.4915044461 0.52432611754 2.9637113136 2.7572056934 2.5352808365 2.3183572967 2.1243706857 1.9616239082 
1.829722181 1.7240926197 1.6393591329 2.9637113136 2.7572056934 2.5352808365 2.3183572967 2.1243706857 1.9616239082 
1.829722181 1.7240926197 1.6393591329 3.0476902371 2.9654393563 2.8937201384 2.8312413375 2.7767288255 2.7290193058 
2.6870952876 2.6500882075 2.617266536 3.0476902371 2.9654393563 2.8937201384 2.8312413375 2.7767288255 2.7290193058 
2.6870952876 2.6500882075 2.617266536 0 0 0 0 3.1415926536 3.1415926536 
3.1415926536 3.1415926536 3.1415926536 0.17788134 0.38438696014 0.60631181711 0.82323535693 1.0172219679 1.1799687454 
1.3118704726 1.4175000338 1.5022335207 0.17788134 0.38438696014 0.60631181711 0.82323535693 1.0172219679 1.1799687454 
1.3118704726 1.4175000338 1.5022335207 0.093902416448 0.17615329733 0.2478725152 0.31035131605 0.36486382811 0.41257334776 
0.45449736604 0.4915044461 0.52432611754 0.093902416448 0.17615329733 0.2478725152 0.31035131605 0.36486382811 0.41257334776 
0.45449736604 0.4915044461 0.52432611754 2.9637113136 2.7572056934 2.5352808365 2.3183572967 2.1243706857 1.9616239082 
1.829722181 1.7240926197 1.6393591329 2.9637113136 2.7572056934 2.5352808365 2.3183572967 2.1243706857 1.9616239082 
1.829722181 1.7240926197 1.6393591329 3.0476902371 2.9654393563 2.8937201384 2.8312413375 2.7767288255 2.7290193058 
2.6870952876 2.6500882075 2.617266536 3.0476902371 2.9654393563 2.8937201384 2.8312413375 2.7767288255 2.7290193058 
2.6870952876 2.6500882075 2.617266536 1.5707963268 1.5707963268 1.5707963268 1.5707963268 1.5707963268 1.5707963268 
1.5707963268 1.5707963268 1.5707963268 1.6743954455 1.7840462375 1.8974821136 2.0119052671 2.1243706857 2.232221744 
2.3334263672 2.426721652 2.5115728246 1.4671972081 1.3575464161 1.24411054 1.1296873865 1.0172219679 0.90937090954 
0.80816628637 0.71487100155 0.63001982895 1.6743954455 1.7840462375 1.8974821136 2.0119052671 2.1243706857 2.232221744 
2.3334263672 2.426721652 2.5115728246 1.4671972081 1.3575464161 1.24411054 1.1296873865 1.0172219679 0.90937090954 
0.80816628637 0.71487100155 0.63001982895 1.5707963268 1.5707963268 1.5707963268 1.5707963268 1.5707963268 1.5707963268 
1.5707963268 1.5707963268 1.5707963268 1.6743954455 1.7840462375 1.8974821136 2.0119052671 2.1243706857 2.232221744 
2.3334263672 2.426721652 2.5115728246 1.4671972081 1.3575464161 1.24411054 1.1296873865 1.0172219679 0.90937090954 
0.80816628637 0.71487100155 0.63001982895 1.6743954455 1.7840462375 1.8974821136 2.0119052671 2.1243706857 2.232221744 
2.3334263672 2.426721652 2.5115728246 1.4671972081 1.3575464161 1.24411054 1.1296873865 1.0172219679 0.90937090954 
0.80816628637 0.71487100155 0.63001982895 2.6824132222 2.7864913217 2.8992382033 3.0186096618 3.1415926536 3.0186096618 
2.8992382033 2.7864913217 2.6824132222 0.45917943135 0.35510133185 0.2423544503 0.12298299178 0 0.12298299178 
0.2423544503 0.35510133185 0.45917943135 0.22715816343 0.49462574053 0.3129712797 0.77059342779 0.68021497688 0.49462574053 
1.0172219679 1.0172219679 1.0172219679 1.0172219679 1.2156949949 1.271087727 1.3676273807 1.5707963268 2.1243706857 
1.3676273807 1.447813335 1.5707963268 1.7739652728 2.1243706857 2.6469669131 1.4827341049 1.5707963268 1.6937793186 
1.8705049266 2.1243706857 2.4613776767 2.8286213739 1.5707963268 1.6588585487 1.7739652728 1.9258976586 2.1243706857 
2.3709992258 2.6469669131 2.9144344902 0.26576171152 0.33975332011 0.45685295248 0.40226393329 0.51573716537 0.6552068806 
0.45538277901 0.56421707518 0.69407236469 0.84594095064 0.50083690068 0.60464862014 0.72561863695 0.86392567495 1.0172219679 
0.54002084522 0.63877777351 0.75168694275 0.87851444325 1.0172219679 1.1636342747 0.57404952988 0.66790778838 0.77356233629 
0.89058134991 1.0172219679 1.1502619915 1.2852923014 0.60381225391 0.69302191562 0.79216440667 0.90072551443 1.0172219679 
1.139116835 1.2630228569 1.3852070904 0.71487100155 0.80816628637 0.80816628637 0.90937090954 0.90937090954 0.90937090954 
1.0172219679 1.0172219679 1.0172219679 1.0172219679 1.1296873865 1.1296873865 1.1296873865 1.1296873865 1.1296873865 
1.24411054 1.24411054 1.24411054 1.24411054 1.24411054 1.24411054 1.3575464161 1.3575464161 1.3575464161 
1.3575464161 1.3575464161 1.3575464161 1.3575464161 1.4671972081 1.4671972081 1.4671972081 1.4671972081 1.4671972081 
1.4671972081 1.4671972081 1.4671972081 1.6743954455 1.6743954455 1.7840462375 1.6743954455 1.7840462375 1.8974821136 
1.6743954455 1.7840462375 1.8974821136 2.0119052671 1.6743954455 1.7840462375 1.8974821136 2.0119052671 2.1243706857 
1.6743954455 1.7840462375 1.8974821136 2.0119052671 2.1243706857 2.232221744 1.6743954455 1.7840462375 1.8974821136 
2.0119052671 2.1243706857 2.232221744 2.3334263672 1.6743954455 1.7840462375 1.8974821136 2.0119052671 2.1243706857 
2.232221744 2.3334263672 2.426721652 1.7563855631 1.8785697967 1.8563003522 2.0024758186 1.9913306621 1.9779583789 
2.1243706857 2.1243706857 2.1243706857 2.1243706857 2.2408671392 2.2510113037 2.2630782103 2.2776669786 2.295651703 
2.3494282469 2.3680303173 2.3899057108 2.4159740166 2.4475202889 2.486385773 2.448570738 2.4736848652 2.5028148801 
2.5369440334 2.5773755784 2.6258554882 2.6847397011 2.5377803997 2.5675431237 2.6015718084 2.6407557529 2.6862098746 
2.7393287203 2.8018393335 2.8758309421 2.718901062 2.8307207459 2.7598010554 2.95115522 2.8800620952 2.8058000847 
3.0774230472 3.00855263 2.9351694502 2.8576792927 3.0774230472 3.1415926536 3.0719036933 2.9967168029 2.91630358 
2.95115522 3.00855263 3.0719036933 3.1415926536 3.0653475414 2.9825888767 2.8307207459 2.8800620952 2.9351694502 
2.9967168029 3.0653475414 3.1415926536 3.0574329311 2.718901062 2.7598010554 2.8058000847 2.8576792927 2.91630358 
2.9825888767 3.0574329311 3.1415926536 2.718901062 2.7598010554 2.8307207459 2.8058000847 2.8800620952 2.95115522 
2.8576792927 2.9351694502 3.00855263 3.0774230472 2.91630358 2.9967168029 3.0719036933 3.1415926536 3.0774230472 
2.9825888767 3.0653475414 3.1415926536 3.0719036933 3.00855263 2.95115522 3.0574329311 3.1415926536 3.0653475414 