# vtk DataFile Version 5.1
vtk output
ASCII
DATASET POLYDATA
POINTS 1002 float
-8.09526 -0.143175 -3.25657 8.36383 -0.636457 -3.01934 -7.56037 0.362932 3.31973 
7.4356 -0.646208 2.23248 -1.20428 1.63966 -2.10271 -1.34125 1.98328 1.34616 
-0.511682 -5.95348 -1.89751 0.629911 -6.45711 2.18276 13.4253 8.82979 1.25638 
-12.2782 7.29302 0.915552 12.9762 -2.39966 -0.108109 -12.0738 -3.22938 -0.056377 
-7.06592 -0.490502 -3.28989 -5.86662 -0.886173 -3.33503 -4.46049 -1.30602 -3.38047 
-2.72782 -1.729 -3.34132 -0.625176 -2.06784 -3.18274 1.62198 -2.1507 -3.03968 
3.71219 -1.93983 -3.02739 5.52363 -1.57242 -3.08628 7.06442 -1.13832 -3.10188 
-7.89006 0.28401 -3.29697 -7.58863 0.739768 -3.34819 -7.14297 1.20466 -3.35462 
-6.54913 1.58179 -3.27101 -5.77617 1.84383 -3.16661 -4.82015 2.04791 -3.08597 
-3.86062 2.13941 -2.93055 -3.02525 2.04708 -2.65632 -2.18462 1.84407 -2.35534 
-7.6556 -0.796356 -3.2232 -7.12284 -1.52333 -3.1618 -6.44374 -2.28955 -3.09998 
-5.65219 -3.03051 -3.01968 -4.83192 -3.71236 -2.86719 -3.96904 -4.31412 -2.66048 
-3.04774 -4.82095 -2.46192 -2.13611 -5.25561 -2.2719 -1.28557 -5.63575 -2.0754 
-8.9591 0.488308 -3.21069 -9.86237 1.24778 -3.09055 -10.7399 2.1268 -2.89818 
-11.5366 3.05886 -2.62319 -12.2533 4.04995 -2.23575 -12.7847 5.14158 -1.72681 
-12.9581 6.15858 -1.10263 -12.8287 6.84354 -0.395567 -12.5819 7.17565 0.306423 
-8.79545 -0.24531 -3.21365 -9.48485 -0.429529 -3.12881 -10.1425 -0.668107 -2.97035 
-10.7606 -0.93863 -2.75297 -11.3031 -1.26069 -2.45626 -11.7202 -1.65075 -2.08169 
-11.9876 -2.11481 -1.6798 -12.1158 -2.61103 -1.20661 -12.1382 -3.01202 -0.63058 
8.07566 -0.293202 -3.01357 7.71796 0.0439308 -2.99275 7.24997 0.361955 -2.94538 
6.559 0.623829 -2.80714 5.60383 0.757756 -2.60113 4.46494 0.738263 -2.43436 
3.1414 0.655182 -2.30069 1.614 0.694048 -2.17275 0.0766187 1.0219 -2.10683 
7.80155 -1.33548 -3.08317 7.07153 -2.0691 -3.11282 6.18228 -2.78486 -3.0992 
5.17136 -3.45525 -3.05144 4.10164 -4.07797 -2.94025 3.04558 -4.60024 -2.73829 
2.04669 -5.00338 -2.50626 1.11622 -5.35975 -2.29854 0.261131 -5.69143 -2.09938 
9.39698 0.211906 -2.85028 10.4377 1.27469 -2.58639 11.4692 2.48336 -2.27611 
12.3625 3.69143 -1.97582 13.0324 4.84982 -1.60372 13.5672 6.01825 -1.11754 
13.9447 7.15737 -0.6247 14.0079 8.09968 -0.0917019 13.7782 8.67964 0.573541 
9.27034 -0.493038 -2.88535 10.1636 -0.336608 -2.7043 10.9966 -0.256261 -2.55259 
11.7577 -0.290255 -2.36121 12.4019 -0.40152 -2.02525 12.8804 -0.627823 -1.65884 
13.1984 -1.02567 -1.34843 13.3342 -1.51303 -0.984162 13.2482 -1.98141 -0.53805 
-6.49505 -0.0542455 3.38628 -5.23701 -0.53206 3.46267 -3.81845 -1.0172 3.4833 
-2.28032 -1.4442 3.365 -0.597313 -1.79638 3.14511 1.22658 -2.00607 2.86765 
3.04645 -1.93376 2.55247 4.71251 -1.587 2.3211 6.17714 -1.12094 2.24273 
-7.17422 0.743443 3.30734 -6.693 1.0882 3.22909 -6.14008 1.415 3.1113 
-5.55081 1.73163 2.98188 -4.93209 1.97426 2.77045 -4.26668 2.11442 2.45785 
-3.53933 2.20865 2.17809 -2.77635 2.25012 1.96519 -2.03759 2.17268 1.70242 
-7.23875 -0.304583 3.33045 -6.83522 -0.999038 3.38885 -6.44069 -1.65339 3.56262 
-5.97017 -2.32701 3.65046 -5.16139 -3.14769 3.41221 -4.00545 -4.03928 3.00493 
-2.74911 -4.79027 2.7135 -1.5114 -5.38896 2.54601 -0.344503 -5.94783 2.38515 
-8.30457 1.01721 3.22264 -9.02955 1.73389 3.04773 -9.78068 2.51893 2.82933 
-10.5082 3.33695 2.58144 -11.0905 4.1466 2.34538 -11.5676 4.97231 2.22144 
-12.0161 5.78731 2.13712 -12.3179 6.47271 1.88818 -12.377 6.97155 1.44178 
-8.40671 0.325725 3.25124 -9.33394 0.217616 3.09286 -10.2926 0.0232469 2.83588 
-11.1166 -0.281789 2.57355 -11.7208 -0.701381 2.2741 -12.1936 -1.18574 1.81908 
-12.5173 -1.70768 1.30935 -12.571 -2.28039 0.864744 -12.3818 -2.8311 0.422656 
7.0418 -0.379621 2.20524 6.51137 -0.152623 2.1502 5.78874 -0.0172618 2.02144 
4.90348 0.0258639 1.8247 3.89388 0.0688598 1.66673 2.73816 0.199464 1.61932 
1.52039 0.45494 1.60594 0.406451 0.857348 1.54197 -0.543034 1.38776 1.44321 
7.04446 -1.23202 2.27841 6.59162 -1.87709 2.34745 6.03827 -2.57864 2.39596 
5.3784 -3.28224 2.41161 4.69694 -3.95043 2.45366 4.06349 -4.60349 2.52233 
3.40362 -5.22243 2.53382 2.59299 -5.74766 2.4612 1.6303 -6.15582 2.33748 
8.40424 0.0576476 2.19457 9.40331 0.908408 2.11425 10.4164 1.91746 2.06977 
11.4271 3.11243 2.1972 12.3258 4.45106 2.42123 12.9756 5.75402 2.57184 
13.353 6.90311 2.60735 13.5141 7.87849 2.42402 13.5229 8.56303 1.9275 
8.37291 -0.539511 2.22313 9.30444 -0.470993 2.18252 10.1829 -0.476521 2.13563 
10.991 -0.596942 2.08874 11.7349 -0.863905 1.95929 12.3402 -1.26068 1.66538 
12.7241 -1.67727 1.26103 12.9299 -2.00451 0.830727 13.0167 -2.23352 0.375834 
-1.21966 1.96074 -1.94539 -1.22951 2.22203 -1.71079 -1.29426 2.38255 -1.37681 
-1.39288 2.48471 -1.00166 -1.40654 2.61245 -0.627374 -1.32908 2.72558 -0.221089 
-1.2958 2.68667 0.213968 -1.33316 2.48428 0.632935 -1.35679 2.22793 1.01628 
0.873342 1.2253 -1.88103 3.40435 1.52474 -1.68831 5.66812 2.61395 -1.5325 
7.21017 4.00281 -1.37795 8.4106 5.21675 -1.1407 9.683 6.23893 -0.758879 
10.8857 7.19012 -0.276395 11.8805 8.04373 0.234608 12.7285 8.64331 0.753794 
-2.75581 2.66467 -2.22427 -4.01053 3.74829 -2.21365 -5.35653 4.55699 -1.97668 
-6.81296 5.25882 -1.57439 -8.00166 6.03982 -1.15054 -9.04634 6.73332 -0.733388 
-10.1631 7.25332 -0.278506 -11.0835 7.58597 0.177524 -11.7202 7.6026 0.578061 
-0.0220261 1.40102 0.999633 1.80909 1.11997 0.712961 4.16643 1.59827 0.66573 
6.57272 2.87491 0.893204 8.42841 4.39061 1.18668 9.71481 5.69528 1.35836 
10.7764 6.8309 1.45689 11.75 7.847 1.5377 12.6326 8.56611 1.49734 
-2.47937 2.78091 1.48299 -3.63126 3.59863 1.56733 -4.83588 4.39471 1.56835 
-6.05228 5.22227 1.55308 -7.20041 6.04435 1.61996 -8.29836 6.73999 1.7159 
-9.42875 7.25347 1.69296 -10.5462 7.53428 1.51879 -11.5111 7.52949 1.24846 
-0.518655 -6.26189 -1.65751 -0.545713 -6.59296 -1.35665 -0.567746 -6.96385 -0.940509 
-0.523511 -7.23898 -0.410232 -0.401511 -7.26825 0.126066 -0.231919 -7.18541 0.612852 
-0.00221212 -7.17356 1.09374 0.271022 -7.12083 1.54728 0.499902 -6.86617 1.90987 
0.733447 -6.09211 -1.89181 2.08706 -6.20808 -1.95622 3.49346 -6.30603 -2.05766 
4.97337 -6.25407 -2.09382 6.71917 -5.79037 -1.98331 8.71735 -4.97493 -1.73795 
10.4895 -4.20762 -1.39569 11.6753 -3.61383 -0.977742 12.4161 -3.02758 -0.528545 
-1.75949 -5.9761 -1.80889 -3.13091 -5.97977 -1.74255 -4.56437 -5.97821 -1.64849 
-5.945 -5.89608 -1.48095 -7.22636 -5.66595 -1.30083 -8.44627 -5.3433 -1.14532 
-9.57265 -4.94623 -0.923886 -10.5386 -4.43045 -0.618108 -11.362 -3.83723 -0.316799 
2.03805 -6.69741 2.01186 3.3724 -6.7681 1.77163 4.77822 -6.67285 1.51773 
6.30887 -6.46973 1.2615 7.82754 -6.09006 1.01384 9.28208 -5.48168 0.77666 
10.5794 -4.76886 0.513971 11.5575 -4.01615 0.252809 12.3011 -3.20682 0.0505422 
-0.997006 -6.39731 2.10692 -2.79196 -6.31663 1.97121 -4.62916 -6.24071 1.87466 
-6.41195 -6.13432 1.8409 -7.95519 -5.97921 1.72343 -9.08454 -5.69517 1.42623 
-9.9347 -5.14947 1.04692 -10.7354 -4.43166 0.680164 -11.48 -3.77079 0.318258 
14.2039 8.54731 1.28925 14.7713 7.63587 1.20608 15.1311 6.23633 1.05389 
15.3828 4.77213 0.901661 15.3793 3.42303 0.757734 15.0992 2.01121 0.575594 
14.8009 0.61635 0.366898 14.4051 -0.531651 0.188093 13.7372 -1.49749 0.0392377 
-13.0918 6.72716 0.852583 -13.8673 6.0009 0.718412 -14.3593 5.12243 0.502409 
-14.5778 4.02967 0.235007 -14.6611 2.79338 0.0124564 -14.4879 1.44783 -0.106576 
-14.0167 -0.0468828 -0.160716 -13.4265 -1.44266 -0.175052 -12.7799 -2.47431 -0.134342 
-6.76595 -0.103019 -3.37529 -6.34424 0.309564 -3.43841 -5.44008 -0.533311 -3.41771 
-5.73971 0.69645 -3.41214 -4.83917 -0.188052 -3.41782 -3.82025 -1.00464 -3.36968 
-4.95396 0.976521 -3.32803 -4.0285 0.0804683 -3.36083 -2.97809 -0.760209 -3.2778 
-1.79638 -1.48179 -3.23092 -4.02101 1.15732 -3.23626 -3.04627 0.252201 -3.30493 
-1.94872 -0.585978 -3.21576 -0.704473 -1.2618 -3.13222 0.552561 -1.76821 -3.09461 
-3.03037 1.2246 -3.05153 -1.95181 0.347399 -3.14049 -0.747897 -0.408742 -3.10736 
0.539429 -0.986033 -3.06081 1.83604 -1.38447 -3.05929 2.91734 -1.67164 -3.03161 
-2.06761 1.14319 -2.72841 -0.807508 0.368568 -2.80198 0.570612 -0.185065 -2.81992 
1.9179 -0.557569 -2.85805 3.19812 -0.834614 -2.97328 4.25998 -1.06121 -3.03073 
5.00128 -1.28967 -3.03352 -1.06123 1.02907 -2.38099 0.376954 0.436822 -2.44097 
1.89353 0.139545 -2.5031 3.27951 0.0245162 -2.58677 4.50974 -0.0922393 -2.7751 
5.52172 -0.287188 -2.95943 6.22696 -0.531429 -3.02279 6.70037 -0.81494 -3.05254 
-8.77281 1.01479 -3.21045 -9.6476 1.8817 -3.05386 -8.43875 1.57369 -3.22192 
-10.4681 2.83794 -2.83155 -9.25799 2.52516 -3.03947 -7.96832 2.09496 -3.19255 
-11.2415 3.82314 -2.49028 -10.0427 3.53398 -2.77409 -8.77118 3.08703 -3.00545 
-7.36145 2.47385 -3.1026 -11.8906 4.86902 -1.99922 -10.7555 4.55562 -2.32557 
-9.49163 4.14669 -2.70042 -8.0964 3.49337 -2.94285 -6.47681 2.75101 -3.03065 
-12.207 5.95248 -1.40511 -11.2137 5.58075 -1.7258 -9.99594 5.1723 -2.15058 
-8.65433 4.57132 -2.58894 -7.05895 3.76627 -2.86371 -5.37117 2.97727 -2.95758 
-12.1758 6.84996 -0.741503 -11.3338 6.52533 -1.0903 -10.1972 6.06513 -1.48885 
-8.96121 5.50217 -1.954 -7.54559 4.72762 -2.40998 -5.8857 3.90708 -2.70813 
-4.37863 3.05785 -2.77272 -11.9851 7.3853 -0.0530552 -11.2618 7.21938 -0.446833 
-10.2178 6.77706 -0.867802 -9.05002 6.20813 -1.29202 -7.87956 5.47344 -1.73893 
-6.42243 4.67716 -2.18243 -4.88282 3.90301 -2.46666 -3.57429 2.93784 -2.49642 
-10.9049 7.70037 0.871785 -9.8158 7.54295 1.09091 -10.1132 7.5385 0.404017 
-8.57745 7.17362 1.21268 -8.89403 7.2951 0.557195 -9.0581 7.13185 -0.126408 
-7.41237 6.60697 1.21809 -7.6687 6.8669 0.631544 -7.88153 6.81516 -0.0367099 
-7.98598 6.505 -0.636761 -6.27071 5.81849 1.17308 -6.49815 6.19266 0.648103 
-6.68184 6.25734 0.0171671 -6.79808 6.0627 -0.589383 -6.87167 5.69748 -1.08445 
-5.00887 4.93659 1.17407 -5.18622 5.36491 0.672761 -5.32602 5.53214 0.0932457 
-5.38033 5.46582 -0.508776 -5.42592 5.26464 -1.03378 -5.46068 4.95892 -1.49877 
-3.72866 4.06889 1.19163 -3.80847 4.50974 0.716294 -3.89812 4.7574 0.190256 
[...]
POINT_DATA 1002
FIELD FieldData 4
_paraPhi 1 1002 double
6.2831853072 3.1415926536 6.2831853072 3.1415926536 4.7123889804 4.7123889804 1.5707963268 1.5707963268 3.6951670125 
5.7296109483 2.5880182947 0.5535743589 6.2831853072 6.2831853072 6.2831853072 6.2831853072 3.1415926536 3.1415926536 
3.1415926536 3.1415926536 3.1415926536 6.1053039672 5.898798347 5.6768734901 5.4599499503 5.2659633393 5.1032165617 
4.9713148346 4.8656852733 4.7809517865 0.17788134 0.38438696014 0.60631181711 0.82323535693 1.0172219679 1.1799687454 
1.3118704726 1.4175000338 1.5022335207 6.1892828907 6.1070320098 6.035312792 5.9728339911 5.9183214791 5.8706119594 
5.8286879411 5.7916808611 5.7588591896 0.093902416448 0.17615329733 0.2478725152 0.31035131605 0.36486382811 0.41257334776 
0.45449736604 0.4915044461 0.52432611754 3.3194739936 3.5259796137 3.7479044707 3.9648280105 4.1588146215 4.321561399 
4.4534631262 4.5590926874 4.6438261743 2.9637113136 2.7572056934 2.5352808365 2.3183572967 2.1243706857 1.9616239082 
1.829722181 1.7240926197 1.6393591329 3.23549507 3.3177459509 3.3894651688 3.4519439696 3.5064564817 3.5541660013 
3.5960900196 3.6330970997 3.6659187711 3.0476902371 2.9654393563 2.8937201384 2.8312413375 2.7767288255 2.7290193058 
2.6870952876 2.6500882075 2.617266536 6.2831853072 6.2831853072 6.2831853072 6.2831853072 3.1415926536 3.1415926536 
3.1415926536 3.1415926536 3.1415926536 6.1053039672 5.898798347 5.6768734901 5.4599499503 5.2659633393 5.1032165617 
4.9713148346 4.8656852733 4.7809517865 0.17788134 0.38438696014 0.60631181711 0.82323535693 1.0172219679 1.1799687454 
1.3118704726 1.4175000338 1.5022335207 6.1892828907 6.1070320098 6.035312792 5.9728339911 5.9183214791 5.8706119594 
5.8286879411 5.7916808611 5.7588591896 0.093902416448 0.17615329733 0.2478725152 0.31035131605 0.36486382811 0.41257334776 
0.45449736604 0.4915044461 0.52432611754 3.3194739936 3.5259796137 3.7479044707 3.9648280105 4.1588146215 4.321561399 
4.4534631262 4.5590926874 4.6438261743 2.9637113136 2.7572056934 2.5352808365 2.3183572967 2.1243706857 1.9616239082 
1.829722181 1.7240926197 1.6393591329 3.23549507 3.3177459509 3.3894651688 3.4519439696 3.5064564817 3.5541660013 
3.5960900196 3.6330970997 3.6659187711 3.0476902371 2.9654393563 2.8937201384 2.8312413375 2.7767288255 2.7290193058 
2.6870952876 2.6500882075 2.617266536 4.7123889804 4.7123889804 4.7123889804 4.7123889804 4.7123889804 4.7123889804 
4.7123889804 4.7123889804 4.7123889804 4.6087898617 4.4991390697 4.3857031936 4.2712800401 4.1588146215 4.0509635631 
3.94975894 3.8564636551 3.7716124825 4.8159880991 4.9256388911 5.0390747672 5.1534979207 5.2659633393 5.3738143976 
5.4750190208 5.5683143056 5.6531654782 4.6087898617 4.4991390697 4.3857031936 4.2712800401 4.1588146215 4.0509635631 
3.94975894 3.8564636551 3.7716124825 4.8159880991 4.9256388911 5.0390747672 5.1534979207 5.2659633393 5.3738143976 
5.4750190208 5.5683143056 5.6531654782 1.5707963268 1.5707963268 1.5707963268 1.5707963268 1.5707963268 1.5707963268 
1.5707963268 1.5707963268 1.5707963268 1.6743954455 1.7840462375 1.8974821136 2.0119052671 2.1243706857 2.232221744 
2.3334263672 2.426721652 2.5115728246 1.4671972081 1.3575464161 1.24411054 1.1296873865 1.0172219679 0.90937090954 
0.80816628637 0.71487100155 0.63001982895 1.6743954455 1.7840462375 1.8974821136 2.0119052671 2.1243706857 2.232221744 
2.3334263672 2.426721652 2.5115728246 1.4671972081 1.3575464161 1.24411054 1.1296873865 1.0172219679 0.90937090954 
0.80816628637 0.71487100155 0.63001982895 3.6007720849 3.4966939854 3.3839471039 3.2645756454 3.1415926536 3.0186096618 
2.8992382033 2.7864913217 2.6824132222 5.8240058758 5.9280839753 6.0408308569 6.1602023154 6.2831853072 0.12298299178 
0.2423544503 0.35510133185 0.45917943135 6.0560271438 5.7885595667 5.9702140275 5.5125918794 5.6029703303 5.7885595667 
5.2659633393 5.2659633393 5.2659633393 5.2659633393 5.0674903122 5.0120975802 4.9155579264 4.7123889804 4.1588146215 
4.9155579264 4.8353719722 4.7123889804 4.5092200343 4.1588146215 3.6362183941 4.8004512023 4.7123889804 4.5894059886 
4.4126803806 4.1588146215 3.8218076305 3.4545639333 4.7123889804 4.6243267584 4.5092200343 4.3572876485 4.1588146215 
3.9121860814 3.6362183941 3.368750817 6.0174235957 5.9434319871 5.8263323547 5.8809213739 5.7674481418 5.6279784266 
5.8278025282 5.718968232 5.5891129425 5.4372443565 5.7823484065 5.678536687 5.5575666702 5.4192596322 5.2659633393 
5.743164462 5.6444075337 5.5314983644 5.4046708639 5.2659633393 5.1195510325 5.7091357773 5.6152775188 5.5096229709 
5.3926039573 5.2659633393 5.1329233157 4.9978930058 5.6793730533 5.5901633916 5.4910209005 5.3824597928 5.2659633393 
5.1440684722 5.0201624502 4.8979782167 5.5683143056 5.4750190208 5.4750190208 5.3738143976 5.3738143976 5.3738143976 
5.2659633393 5.2659633393 5.2659633393 5.2659633393 5.1534979207 5.1534979207 5.1534979207 5.1534979207 5.1534979207 
5.0390747672 5.0390747672 5.0390747672 5.0390747672 5.0390747672 5.0390747672 4.9256388911 4.9256388911 4.9256388911 
4.9256388911 4.9256388911 4.9256388911 4.9256388911 4.8159880991 4.8159880991 4.8159880991 4.8159880991 4.8159880991 
4.8159880991 4.8159880991 4.8159880991 4.6087898617 4.6087898617 4.4991390697 4.6087898617 4.4991390697 4.3857031936 
4.6087898617 4.4991390697 4.3857031936 4.2712800401 4.6087898617 4.4991390697 4.3857031936 4.2712800401 4.1588146215 
4.6087898617 4.4991390697 4.3857031936 4.2712800401 4.1588146215 4.0509635631 4.6087898617 4.4991390697 4.3857031936 
4.2712800401 4.1588146215 4.0509635631 3.94975894 4.6087898617 4.4991390697 4.3857031936 4.2712800401 4.1588146215 
4.0509635631 3.94975894 3.8564636551 4.526799744 4.4046155105 4.426884955 4.2807094886 4.2918546451 4.3052269283 
4.1588146215 4.1588146215 4.1588146215 4.1588146215 4.042318168 4.0321740035 4.0201070968 4.0055183285 3.9875336042 
3.9337570603 3.9151549899 3.8932795963 3.8672112905 3.8356650183 3.7967995342 3.8346145692 3.809500442 3.7803704271 
3.7462412737 3.7058097288 3.657329819 3.5984456061 3.7454049075 3.7156421835 3.6816134988 3.6424295543 3.5969754326 
3.5438565869 3.4813459737 3.4073543651 3.5642842451 3.4524645613 3.5233842518 3.3320300872 3.403123212 3.4773852225 
3.20576226 3.2746326772 3.348015857 3.4255060145 3.0774230472 3.1415926536 3.2112816139 3.2864685043 3.3668817272 
2.95115522 3.00855263 3.0719036933 3.1415926536 3.2178377658 3.3005964304 2.8307207459 2.8800620952 2.9351694502 
2.9967168029 3.0653475414 3.1415926536 3.225752376 2.718901062 2.7598010554 2.8058000847 2.8576792927 2.91630358 
2.9825888767 3.0574329311 3.1415926536 3.5642842451 3.5233842518 3.4524645613 3.4773852225 3.403123212 3.3320300872 
3.4255060145 3.348015857 3.2746326772 3.20576226 3.3668817272 3.2864685043 3.2112816139 3.1415926536 3.0774230472 
3.3005964304 3.2178377658 3.1415926536 3.0719036933 3.00855263 2.95115522 3.225752376 3.1415926536 3.0653475414 
2.9967168029 2.9351694502 2.8800620952 2.8307207459 3.1415926536 3.0574329311 2.9825888767 2.91630358 2.8576792927 
2.8058000847 2.7598010554 2.718901062 4.526799744 4.426884955 4.4046155105 4.3052269283 4.2918546451 4.2807094886 
4.1588146215 4.1588146215 4.1588146215 4.1588146215 3.9875336042 4.0055183285 4.0201070968 4.0321740035 4.042318168 
3.7967995342 3.8356650183 3.8672112905 3.8932795963 3.9151549899 3.9337570603 3.5984456061 3.657329819 3.7058097288 
3.7462412737 3.7803704271 3.809500442 3.8346145692 3.4073543651 3.4813459737 3.5438565869 3.5969754326 3.6424295543 
3.6816134988 3.7156421835 3.7454049075 4.7123889804 4.8004512023 4.6243267584 4.9155579264 4.7123889804 4.5092200343 
5.0674903122 4.8353719722 4.5894059886 4.3572876485 5.2659633393 5.0120975802 4.7123889804 4.4126803806 4.1588146215 
5.5125918794 5.2659633393 4.9155579264 4.5092200343 4.1588146215 3.9121860814 5.7885595667 5.6029703303 5.2659633393 
4.7123889804 4.1588146215 3.8218076305 3.6362183941 6.0560271438 5.9702140275 5.7885595667 5.2659633393 4.1588146215 
3.6362183941 3.4545639333 3.368750817 0.22715816343 0.49462574053 0.3129712797 0.77059342779 0.68021497688 0.49462574053 
1.0172219679 1.0172219679 1.0172219679 1.0172219679 1.2156949949 1.271087727 1.3676273807 1.5707963268 2.1243706857 
1.3676273807 1.447813335 1.5707963268 1.7739652728 2.1243706857 2.6469669131 1.4827341049 1.5707963268 1.6937793186 
1.8705049266 2.1243706857 2.4613776767 2.8286213739 1.5707963268 1.6588585487 1.7739652728 1.9258976586 2.1243706857 
2.3709992258 2.6469669131 2.9144344902 1.7563855631 1.8785697967 1.8563003522 2.0024758186 1.9913306621 1.9779583789 
2.1243706857 2.1243706857 2.1243706857 2.1243706857 2.2408671392 2.2510113037 2.2630782103 2.2776669786 2.295651703 
2.3494282469 2.3680303173 2.3899057108 2.4159740166 2.4475202889 2.486385773 2.448570738 2.4736848652 2.5028148801 
2.5369440334 2.5773755784 2.6258554882 2.6847397011 2.5377803997 2.5675431237 2.6015718084 2.6407557529 2.6862098746 
2.7393287203 2.8018393335 2.8758309421 1.6743954455 1.6743954455 1.7840462375 1.6743954455 1.7840462375 1.8974821136 
1.6743954455 1.7840462375 1.8974821136 2.0119052671 1.6743954455 1.7840462375 1.8974821136 2.0119052671 2.1243706857 
1.6743954455 1.7840462375 1.8974821136 2.0119052671 2.1243706857 2.232221744 1.6743954455 1.7840462375 1.8974821136 
2.0119052671 2.1243706857 2.232221744 2.3334263672 1.6743954455 1.7840462375 1.8974821136 2.0119052671 2.1243706857 
2.232221744 2.3334263672 2.426721652 1.4671972081 1.3575464161 1.4671972081 1.24411054 1.3575464161 1.4671972081 
1.1296873865 1.24411054 1.3575464161 1.4671972081 1.0172219679 1.1296873865 1.24411054 1.3575464161 1.4671972081 
0.90937090954 1.0172219679 1.1296873865 1.24411054 1.3575464161 1.4671972081 0.80816628637 0.90937090954 1.0172219679 
1.1296873865 1.24411054 1.3575464161 1.4671972081 0.71487100155 0.80816628637 0.90937090954 1.0172219679 1.1296873865 
1.24411054 1.3575464161 1.4671972081 0.60381225391 0.57404952988 0.69302191562 0.54002084522 0.66790778838 0.79216440667 
0.50083690068 0.63877777351 0.77356233629 0.90072551443 0.45538277901 0.60464862014 0.75168694275 0.89058134991 1.0172219679 
0.40226393329 0.56421707518 0.72561863695 0.87851444325 1.0172219679 1.139116835 0.33975332011 0.51573716537 0.69407236469 
0.86392567495 1.0172219679 1.1502619915 1.2630228569 0.26576171152 0.45685295248 0.6552068806 0.84594095064 1.0172219679 
1.1636342747 1.2852923014 1.3852070904 0.22715816343 0.3129712797 0.49462574053 0.49462574053 0.68021497688 0.77059342779 
1.0172219679 1.0172219679 1.0172219679 1.0172219679 2.1243706857 1.5707963268 1.3676273807 1.271087727 1.2156949949 
2.6469669131 2.1243706857 1.7739652728 1.5707963268 1.447813335 1.3676273807 2.8286213739 2.4613776767 2.1243706857 
1.8705049266 1.6937793186 1.5707963268 1.4827341049 2.9144344902 2.6469669131 2.3709992258 2.1243706857 1.9258976586 
1.7739652728 1.6588585487 1.5707963268 1.7563855631 1.8563003522 1.8785697967 1.9779583789 1.9913306621 2.0024758186 
2.1243706857 2.1243706857 2.1243706857 2.1243706857 2.295651703 2.2776669786 2.2630782103 2.2510113037 2.2408671392 
2.486385773 2.4475202889 2.4159740166 2.3899057108 2.3680303173 2.3494282469 2.6847397011 2.6258554882 2.5773755784 
2.5369440334 2.5028148801 2.4736848652 2.448570738 2.8758309421 2.8018393335 2.7393287203 2.6862098746 2.6407557529 
2.6015718084 2.5675431237 2.5377803997 5.8604937156 5.901393709 5.9723133995 5.9473927383 6.0216547488 6.0927478736 
5.9992719463 6.0767621038 6.1501452836 6.2190157008 6.0578962336 6.1383094565 6.2134963469 0 0.064169606361 
6.1241815303 6.206940195 6.2831853072 0.069688960264 0.13304002361 0.19043743361 6.1990255847 0 0.07624511221 
0.14487585072 0.20642320337 0.26153055843 0.3108719077 0 0.084159722458 0.15900377685 0.22528907359 0.28391336087 
0.3357925689 0.38179159818 0.42269159155 5.8604937156 5.9723133995 5.901393709 6.0927478736 6.0216547488 5.9473927383 
6.2190157008 6.1501452836 6.0767621038 5.9992719463 0.064169606361 0 6.2134963469 6.1383094565 6.0578962336 
0.19043743361 0.13304002361 0.069688960264 6.2831853072 6.206940195 6.1241815303 0.3108719077 0.26153055843 0.20642320337 
0.14487585072 0.07624511221 6.2831853072 6.1990255847 0.42269159155 0.38179159818 0.3357925689 0.28391336087 0.22528907359 
0.15900377685 0.084159722458 0 5.6793730533 5.7091357773 5.5901633916 5.743164462 5.6152775188 5.4910209005 
5.7823484065 5.6444075337 5.5096229709 5.3824597928 5.8278025282 5.678536687 5.5314983644 5.3926039573 5.2659633393 
5.8809213739 5.718968232 5.5575666702 5.4046708639 5.2659633393 5.1440684722 5.9434319871 5.7674481418 5.5891129425 
5.4192596322 5.2659633393 5.1329233157 5.0201624502 6.0174235957 5.8263323547 5.6279784266 5.4372443565 5.2659633393 
5.1195510325 4.9978930058 4.8979782167 1.3852070904 1.2852923014 1.2630228569 1.1636342747 1.1502619915 1.139116835 
1.0172219679 1.0172219679 1.0172219679 1.0172219679 0.84594095064 0.86392567495 0.87851444325 0.89058134991 0.90072551443 
0.6552068806 0.69407236469 0.72561863695 0.75168694275 0.77356233629 0.79216440667 0.45685295248 0.51573716537 0.56421707518 
0.60464862014 0.63877777351 0.66790778838 0.69302191562 0.26576171152 0.33975332011 0.40226393329 0.45538277901 0.50083690068 
0.54002084522 0.57404952988 0.60381225391 
_paraPhiHalf 1 1002 double
0 3.1415926536 0 3.1415926536 1.5707963268 1.5707963268 1.5707963268 1.5707963268 2.5880182947 
0.5535743589 2.5880182947 0.5535743589 0 0 0 0 3.1415926536 3.1415926536 
3.1415926536 3.1415926536 3.1415926536 0.17788134 0.38438696014 0.60631181711 0.82323535693 1.0172219679 1.1799687454 
1.3118704726 1.4175000338 1.5022335207 0.17788134 0.38438696014 0.60631181711 0.82323535693 1.0172219679 1.1799687454 
1.3118704726 1.4175000338 1.5022335207 0.093902416448 0.17615329733 0.2478725152 0.31035131605 0.36486382811 0.41257334776 
0.45449736604 0.4915044461 0.52432611754 0.093902416448 0.17615329733 0.2478725152 0.31035131605 0.36486382811 0.41257334776 
0.45449736604 0.4915044461 0.52432611754 2.9637113136 2.7572056934 2.5352808365 2.3183572967 2.1243706857 1.9616239082 
1.829722181 1.7240926197 1.6393591329 2.9637113136 2.7572056934 2.5352808365 2.3183572967 2.1243706857 1.9616239082 
1.829722181 1.7240926197 1.6393591329 3.0476902371 2.9654393563 2.8937201384 2.8312413375 2.7767288255 2.7290193058 
2.6870952876 2.6500882075 2.617266536 3.0476902371 2.9654393563 2.8937201384 2.8312413375 2.7767288255 2.7290193058 
2.6870952876 2.6500882075 2.617266536 0 0 0 0 3.1415926536 3.1415926536 
3.1415926536 3.1415926536 3.1415926536 0.17788134 0.38438696014 0.60631181711 0.82323535693 1.0172219679 1.1799687454 
1.3118704726 1.4175000338 1.5022335207 0.17788134 0.38438696014 0.60631181711 0.82323535693 1.0172219679 1.1799687454 
1.3118704726 1.4175000338 1.5022335207 0.093902416448 0.17615329733 0.2478725152 0.31035131605 0.36486382811 0.41257334776 
0.45449736604 0.4915044461 0.52432611754 0.093902416448 0.17615329733 0.2478725152 0.31035131605 0.36486382811 0.41257334776 
0.45449736604 0.4915044461 0.52432611754 2.9637113136 2.7572056934 2.5352808365 2.3183572967 2.1243706857 1.9616239082 
1.829722181 1.7240926197 1.6393591329 2.9637113136 2.7572056934 2.5352808365 2.3183572967 2.1243706857 1.9616239082 
1.829722181 1.7240926197 1.6393591329 3.0476902371 2.9654393563 2.8937201384 2.8312413375 2.7767288255 2.7290193058 
2.6870952876 2.6500882075 2.617266536 3.0476902371 2.9654393563 2.8937201384 2.8312413375 2.7767288255 2.7290193058 
2.6870952876 2.6500882075 2.617266536 1.5707963268 1.5707963268 1.5707963268 1.5707963268 1.5707963268 1.5707963268 
1.5707963268 1.5707963268 1.5707963268 1.6743954455 1.7840462375 1.8974821136 2.0119052671 2.1243706857 2.232221744 
2.3334263672 2.426721652 2.5115728246 1.4671972081 1.3575464161 1.24411054 1.1296873865 1.0172219679 0.90937090954 
0.80816628637 0.71487100155 0.63001982895 1.6743954455 1.7840462375 1.8974821136 2.0119052671 2.1243706857 2.232221744 
2.3334263672 2.426721652 2.5115728246 1.4671972081 1.3575464161 1.24411054 1.1296873865 1.0172219679 0.90937090954 
0.80816628637 0.71487100155 0.63001982895 1.5707963268 1.5707963268 1.5707963268 1.5707963268 1.5707963268 1.5707963268 
1.5707963268 1.5707963268 1.5707963268 1.6743954455 1.7840462375 1.8974821136 2.0119052671 2.1243706857 2.232221744 
2.3334263672 2.426721652 2.5115728246 1.4671972081 1.3575464161 1.24411054 1.1296873865 1.0172219679 0.90937090954 
0.80816628637 0.71487100155 0.63001982895 1.6743954455 1.7840462375 1.8974821136 2.0119052671 2.1243706857 2.232221744 
2.3334263672 2.426721652 2.5115728246 1.4671972081 1.3575464161 1.24411054 1.1296873865 1.0172219679 0.90937090954 
0.80816628637 0.71487100155 0.63001982895 2.6824132222 2.7864913217 2.8992382033 3.0186096618 3.1415926536 3.0186096618 
2.8992382033 2.7864913217 2.6824132222 0.45917943135 0.35510133185 0.2423544503 0.12298299178 0 0.12298299178 
0.2423544503 0.35510133185 0.45917943135 0.22715816343 0.49462574053 0.3129712797 0.77059342779 0.68021497688 0.49462574053 
1.0172219679 1.0172219679 1.0172219679 1.0172219679 1.2156949949 1.271087727 1.3676273807 1.5707963268 2.1243706857 
1.3676273807 1.447813335 1.5707963268 1.7739652728 2.1243706857 2.6469669131 1.4827341049 1.5707963268 1.6937793186 
1.8705049266 2.1243706857 2.4613776767 2.8286213739 1.5707963268 1.6588585487 1.7739652728 1.9258976586 2.1243706857 
2.3709992258 2.6469669131 2.9144344902 0.26576171152 0.33975332011 0.45685295248 0.40226393329 0.51573716537 0.6552068806 
0.45538277901 0.56421707518 0.69407236469 0.84594095064 0.50083690068 0.60464862014 0.72561863695 0.86392567495 1.0172219679 
0.54002084522 0.63877777351 0.75168694275 0.87851444325 1.0172219679 1.1636342747 0.57404952988 0.66790778838 0.77356233629 
0.89058134991 1.0172219679 1.1502619915 1.2852923014 0.60381225391 0.69302191562 0.79216440667 0.90072551443 1.0172219679 
1.139116835 1.2630228569 1.3852070904 0.71487100155 0.80816628637 0.80816628637 0.90937090954 0.90937090954 0.90937090954 
1.0172219679 1.0172219679 1.0172219679 1.0172219679 1.1296873865 1.1296873865 1.1296873865 1.1296873865 1.1296873865 
1.24411054 1.24411054 1.24411054 1.24411054 1.24411054 1.24411054 1.3575464161 1.3575464161 1.3575464161 
1.3575464161 1.3575464161 1.3575464161 1.3575464161 1.4671972081 1.4671972081 1.4671972081 1.4671972081 1.4671972081 
1.4671972081 1.4671972081 1.4671972081 1.6743954455 1.6743954455 1.7840462375 1.6743954455 1.7840462375 1.8974821136 
1.6743954455 1.7840462375 1.8974821136 2.0119052671 1.6743954455 1.7840462375 1.8974821136 2.0119052671 2.1243706857 
1.6743954455 1.7840462375 1.8974821136 2.0119052671 2.1243706857 2.232221744 1.6743954455 1.7840462375 1.8974821136 
2.0119052671 2.1243706857 2.232221744 2.3334263672 1.6743954455 1.7840462375 1.8974821136 2.0119052671 2.1243706857 
2.232221744 2.3334263672 2.426721652 1.7563855631 1.8785697967 1.8563003522 2.0024758186 1.9913306621 1.9779583789 
2.1243706857 2.1243706857 2.1243706857 2.1243706857 2.2408671392 2.2510113037 2.2630782103 2.2776669786 2.295651703 
2.3494282469 2.3680303173 2.3899057108 2.4159740166 2.4475202889 2.486385773 2.448570738 2.4736848652 2.5028148801 
2.5369440334 2.5773755784 2.6258554882 2.6847397011 2.5377803997 2.5675431237 2.6015718084 2.6407557529 2.6862098746 
2.7393287203 2.8018393335 2.8758309421 2.718901062 2.8307207459 2.7598010554 2.95115522 2.8800620952 2.8058000847 
3.0774230472 3.00855263 2.9351694502 2.8576792927 3.0774230472 3.1415926536 3.0719036933 2.9967168029 2.91630358 
2.95115522 3.00855263 3.0719036933 3.1415926536 3.0653475414 2.9825888767 2.8307207459 2.8800620952 2.9351694502 
2.9967168029 3.0653475414 3.1415926536 3.0574329311 2.718901062 2.7598010554 2.8058000847 2.8576792927 2.91630358 
2.9825888767 3.0574329311 3.1415926536 2.718901062 2.7598010554 2.8307207459 2.8058000847 2.8800620952 2.95115522 
2.8576792927 2.9351694502 3.00855263 3.0774230472 2.91630358 2.9967168029 3.0719036933 3.1415926536 3.0774230472 
2.9825888767 3.0653475414 3.1415926536 3.0719036933 3.00855263 2.95115522 3.0574329311 3.1415926536 3.0653475414 