# vtk DataFile Version 5.1
vtk output
ASCII
DATASET POLYDATA
POINTS 1002 float
-10.7549 -0.996385 -1.53185 -17.064 -16.7922 -5.1195 -8.43438 -4.18285 4.32221 
-15.1125 -17.7428 0.134415 -11.3968 -8.93834 -2.73756 -9.51746 -9.6027 0.36495 
-18.2274 -7.18624 0.0258861 -17.8893 -9.51136 4.05676 -10.1902 -26.599 -6.54 
-0.743393 0.080284 0.192399 -19.764 -22.2638 -2.75615 -11.0947 2.67989 3.45221 
-11.4253 -1.95641 -1.67409 -12.2578 -3.08965 -1.88605 -13.2004 -4.46112 -2.09737 
-14.1145 -6.18873 -2.25603 -14.9947 -8.24698 -2.49414 -15.8643 -10.3626 -2.95312 
-16.542 -12.2946 -3.55014 -16.8994 -13.9982 -4.14497 -17.0345 -15.4909 -4.68055 
-10.4406 -1.30044 -1.80301 -10.153 -1.69295 -2.07748 -9.91564 -2.2914 -2.30709 
-9.74873 -3.03862 -2.5138 -9.6329 -3.69362 -2.76264 -9.58535 -4.38062 -2.99278 
-9.77369 -5.44654 -3.072 -10.2779 -6.74678 -2.99434 -10.8953 -7.92325 -2.8552 
-11.5005 -1.28254 -1.36022 -12.3367 -1.65795 -1.21411 -13.2176 -2.15679 -1.04416 
-14.1021 -2.73388 -0.843545 -14.9826 -3.37061 -0.666669 -15.8101 -4.11691 -0.509813 
-16.5195 -4.92706 -0.348483 -17.137 -5.71203 -0.206121 -17.7108 -6.46495 -0.0854937 
-9.90043 -0.282081 -1.61035 -8.90148 0.399406 -1.67634 -7.70639 0.96106 -1.6184 
-6.31285 1.38854 -1.4795 -4.79564 1.70383 -1.40439 -3.36546 1.80964 -1.33667 
-2.24468 1.60781 -1.10481 -1.46734 1.18276 -0.712255 -0.972889 0.659565 -0.260848 
-10.5886 -0.261781 -1.29273 -10.4394 0.468266 -1.00233 -10.3402 1.1289 -0.623327 
-10.3149 1.72468 -0.156912 -10.3331 2.25868 0.356402 -10.424 2.63594 0.922678 
-10.6366 2.85611 1.58975 -10.8794 2.97985 2.30951 -11.0345 2.93427 2.95125 
-16.6465 -16.6298 -5.22194 -16.1498 -16.3881 -5.26912 -15.5686 -16.0394 -5.21461 
-14.9819 -15.5647 -5.02614 -14.4327 -14.9786 -4.72692 -13.8986 -14.2368 -4.33666 
-13.4207 -13.1949 -3.83736 -12.9602 -11.8071 -3.30633 -12.3146 -10.2823 -2.9137 
-17.4609 -16.1115 -4.73007 -17.8531 -15.2993 -4.26935 -18.2055 -14.3342 -3.74485 
-18.4504 -13.2459 -3.18432 -18.5701 -12.102 -2.60719 -18.5899 -10.9668 -2.007 
-18.5218 -9.89396 -1.41555 -18.4137 -8.90538 -0.885489 -18.32 -7.99844 -0.415253 
-16.7423 -17.9895 -5.55979 -16.2646 -19.2909 -5.96249 -15.6319 -20.6612 -6.33743 
-14.8713 -22.0629 -6.68417 -14.0509 -23.3975 -6.99359 -13.2115 -24.5285 -7.31165 
-12.2748 -25.4318 -7.59548 -11.2781 -26.1151 -7.6123 -10.5111 -26.5124 -7.21757 
-17.3167 -17.6417 -5.25381 -17.5839 -18.5238 -5.32942 -17.8364 -19.4356 -5.35196 
-18.0833 -20.3488 -5.28464 -18.3603 -21.1409 -5.06218 -18.6686 -21.699 -4.73586 
-19.0022 -22.088 -4.386 -19.3423 -22.3706 -3.94989 -19.6176 -22.4507 -3.37757 
-9.21015 -5.12135 4.3434 -10.0257 -6.19492 4.32026 -10.9044 -7.41782 4.16251 
-11.9148 -8.78721 3.78105 -12.9327 -10.3195 3.23817 -13.7403 -11.9563 2.59914 
-14.3337 -13.5477 1.86338 -14.7718 -15.0334 1.15211 -15.0241 -16.4389 0.588874 
-8.25433 -4.57482 4.05865 -8.09618 -5.00564 3.74931 -7.99807 -5.49367 3.37999 
-7.93411 -6.06775 3.00357 -7.9191 -6.72013 2.63084 -8.06553 -7.34869 2.16922 
-8.38478 -7.88932 1.63648 -8.75056 -8.42575 1.15482 -9.11163 -9.01749 0.745743 
-9.08095 -4.3914 4.61715 -9.8283 -4.70084 4.90487 -10.8239 -5.13919 5.05368 
-12.0688 -5.72414 5.03169 -13.3494 -6.43815 5.00286 -14.5424 -7.19875 5.01679 
-15.6417 -7.90377 4.91552 -16.5727 -8.51287 4.6637 -17.2996 -9.04266 4.36221 
-7.53604 -3.52539 4.10848 -6.56368 -2.85551 3.83446 -5.58117 -2.21094 3.4957 
-4.60745 -1.64295 3.1056 -3.63665 -1.16177 2.66754 -2.70185 -0.758222 2.23717 
-1.86415 -0.431221 1.85633 -1.21175 -0.18201 1.41901 -0.832976 -0.0130964 0.837125 
-8.08796 -3.33028 4.43787 -7.78295 -2.33489 4.50418 -7.59045 -1.25081 4.5312 
-7.59717 -0.15042 4.56252 -7.82901 0.867738 4.56957 -8.23806 1.65836 4.4622 
-8.83937 2.171 4.25024 -9.63253 2.48008 4.01598 -10.4458 2.64382 3.76475 
-14.7365 -17.3937 0.0486055 -14.3462 -16.9392 0.00041016 -13.9114 -16.3388 -0.0122112 
-13.4348 -15.5931 0.013338 -12.961 -14.6839 0.104411 -12.4902 -13.5466 0.233742 
-11.9388 -12.2928 0.359519 -11.2264 -11.1728 0.461116 -10.3798 -10.2901 0.475811 
-15.4757 -17.2605 0.50905 -15.8448 -16.7071 0.915193 -16.23 -16.013 1.35016 
-16.6382 -15.1839 1.8056 -17.0226 -14.3437 2.276 -17.3604 -13.4687 2.73867 
-17.6511 -12.4513 3.162 -17.8442 -11.3989 3.52923 -17.912 -10.435 3.82938 
-14.8813 -18.8427 -0.410029 -14.6081 -20.0189 -1.05889 -14.28 -21.2415 -1.72851 
-13.7788 -22.5534 -2.34093 -13.0797 -23.9359 -2.9139 -12.3527 -25.1751 -3.46719 
-11.6764 -26.082 -4.06982 -11.0001 -26.6268 -4.85632 -10.4348 -26.796 -5.76514 
-15.3968 -18.6997 -0.0932679 -15.7666 -19.5928 -0.390965 -16.209 -20.3713 -0.724047 
-16.7133 -21.1036 -0.969217 -17.3241 -21.7915 -1.11065 -17.991 -22.2541 -1.29224 
-18.5899 -22.4296 -1.59047 -19.094 -22.473 -1.95939 -19.4984 -22.4471 -2.35676 
-10.9864 -8.81971 -2.61693 -10.5663 -8.74132 -2.45289 -10.2118 -8.74361 -2.24951 
-9.87508 -8.80391 -2.02085 -9.53917 -8.88856 -1.71864 -9.33474 -9.01233 -1.30945 
-9.2749 -9.1888 -0.860079 -9.26303 -9.38313 -0.421964 -9.32737 -9.53302 -0.00328431 
-12.2652 -10.9605 -2.8601 -12.6403 -13.4767 -3.40495 -12.5025 -15.8716 -4.28443 
-12.0596 -17.6795 -5.15933 -11.6095 -19.3576 -5.77505 -11.3176 -21.3451 -6.13683 
-11.0304 -23.2261 -6.38174 -10.5947 -24.6732 -6.59342 -10.2174 -25.792 -6.6906 
-9.8792 -7.37083 -2.83254 -8.18102 -6.24584 -2.96787 -6.74639 -5.23589 -2.81335 
-5.54584 -4.10244 -2.36219 -4.29634 -3.12411 -1.92243 -3.06531 -2.43275 -1.63476 
-2.04703 -1.7734 -1.36296 -1.29172 -1.08075 -0.956596 -0.85125 -0.458421 -0.402422 
-10.5129 -10.7005 0.0220112 -11.4275 -12.2974 -0.54737 -12.0022 -14.5435 -1.41132 
-12.1196 -17.1842 -2.4266 -11.8375 -19.6894 -3.32324 -11.3467 -21.8117 -4.01428 
-10.8656 -23.5957 -4.62588 -10.4589 -25.013 -5.26376 -10.1757 -26.0006 -5.92578 
-8.36252 -8.68616 0.396361 -7.19268 -7.77566 0.422453 -6.05206 -6.81354 0.472433 
-4.85358 -5.8573 0.467888 -3.59442 -4.99024 0.424119 -2.47641 -4.15612 0.435858 
-1.64441 -3.1906 0.4489 -1.07251 -2.06048 0.385315 -0.760455 -0.921138 0.285451 
-18.4328 -7.14265 0.395436 -18.569 -7.0911 0.837442 -18.6667 -7.08806 1.35677 
-18.7567 -7.20858 1.96143 -18.7652 -7.42841 2.57886 -18.6623 -7.70786 3.08132 
-18.5328 -8.11108 3.4491 -18.3873 -8.63523 3.73532 -18.1722 -9.13786 3.94269 
-18.7928 -8.42805 -0.171594 -19.404 -9.75369 -0.450169 -20.0262 -11.0627 -0.783751 
-20.5224 -12.5275 -1.16258 -20.7541 -14.4757 -1.66455 -20.7564 -16.7326 -2.23664 
-20.6383 -18.7251 -2.63014 -20.4288 -20.2308 -2.7628 -20.1294 -21.3774 -2.77195 
-17.7907 -5.97393 0.412186 -17.288 -4.72048 0.845326 -16.7277 -3.41302 1.30848 
-16.1055 -2.10811 1.73537 -15.4279 -0.920379 2.09088 -14.6747 0.144082 2.42297 
-13.8032 1.07273 2.76092 -12.8786 1.77553 3.06249 -11.9857 2.27865 3.29278 
-18.5131 -10.5958 3.60476 -19.1652 -11.8529 3.089 -19.7126 -13.2752 2.504 
-20.1175 -14.761 1.87874 -20.39 -16.2429 1.16249 -20.474 -17.7312 0.286476 
-20.3968 -19.1424 -0.624952 -20.2516 -20.3629 -1.42584 -20.0467 -21.3967 -2.12593 
-17.4884 -8.19436 4.44952 -17.049 -6.63296 4.80457 -16.4741 -4.96841 4.99768 
-15.7024 -3.35763 5.01496 -14.8506 -1.72396 5.01499 -14.0473 -0.186488 5.01139 
-13.2639 0.866461 4.79375 -12.4704 1.50148 4.33668 -11.7316 2.08498 3.84926 
-10.7115 -27.121 -6.5964 -11.8077 -27.3123 -6.35894 -13.2043 -27.213 -5.84939 
-14.4726 -26.9545 -5.27458 -15.5327 -26.4606 -4.77305 -16.5928 -25.6747 -4.29285 
-17.6682 -24.8468 -3.83235 -18.5817 -24.0755 -3.44827 -19.2613 -23.2151 -3.10525 
-0.989731 0.983223 0.484616 -1.5321 1.86428 0.75719 -2.33011 2.57173 1.02651 
-3.3727 3.06082 1.30184 -4.65789 3.43053 1.6001 -6.08292 3.71783 2.01854 
-7.51979 3.83537 2.55998 -8.88167 3.67565 3.02462 -10.0838 3.24095 3.29391 
-11.1952 -2.37696 -1.94708 -11.0209 -2.93115 -2.21609 -12.1411 -3.65954 -2.15372 
-10.8915 -3.64109 -2.45108 -12.0695 -4.37329 -2.40746 -13.1754 -5.23625 -2.33402 
-10.8254 -4.35789 -2.688 -12.0371 -5.1844 -2.64235 -13.1912 -6.17854 -2.5734 
-14.1635 -7.2456 -2.4919 -10.8761 -5.11354 -2.91857 -12.1414 -6.1225 -2.85901 
-13.3015 -7.29718 -2.8299 -14.2752 -8.48581 -2.80442 -15.1042 -9.53551 -2.8381 
-11.0985 -6.25042 -3.02924 -12.4008 -7.43292 -3.00599 -13.5411 -8.74379 -3.05717 
-14.4464 -9.93351 -3.17471 -15.2013 -10.9227 -3.31069 -15.9126 -11.7057 -3.44246 
-11.5089 -7.71741 -2.99624 -12.6753 -9.0595 -3.08261 -13.7 -10.4569 -3.25839 
-14.5179 -11.5772 -3.52 -15.1715 -12.3953 -3.8121 -15.8041 -13.0476 -4.02411 
-16.4082 -13.5815 -4.1217 -11.977 -9.10107 -2.92774 -12.8716 -10.5682 -3.16971 
-13.6213 -12.0003 -3.52287 -14.2992 -13.0898 -3.89656 -14.8953 -13.8232 -4.26451 
-15.4728 -14.3767 -4.56469 -16.0731 -14.8397 -4.71378 -16.6065 -15.2103 -4.73068 
-9.50001 -0.552806 -1.91003 -8.37336 0.112827 -1.96709 -9.09721 -0.950129 -2.17918 
-7.01299 0.602136 -1.87831 -7.81989 -0.327235 -2.21269 -8.76048 -1.62278 -2.38142 
-5.50394 0.929137 -1.73381 -6.34095 0.0894062 -2.11107 -7.38863 -1.04573 -2.39179 
-8.53831 -2.4335 -2.57421 -4.03152 1.07155 -1.63162 -4.86278 0.258959 -1.94927 
-5.91289 -0.693313 -2.27189 -7.15553 -1.90944 -2.54808 -8.3604 -3.15277 -2.81034 
-2.7744 0.934604 -1.4764 -3.56621 0.14135 -1.78259 -4.57427 -0.703663 -2.08221 
-5.79661 -1.68293 -2.38749 -7.03694 -2.82659 -2.72928 -8.28843 -4.02012 -3.01123 
-1.8203 0.564955 -1.19509 -2.50826 -0.187847 -1.57386 -3.46148 -0.99903 -1.8835 
-4.64829 -1.82042 -2.17439 -5.90199 -2.80607 -2.52952 -7.11709 -3.96263 -2.9123 
-8.56922 -5.21325 -3.07925 -1.18208 0.0872381 -0.827946 -1.73919 -0.600836 -1.30304 
-2.59842 -1.36972 -1.65273 -3.72399 -2.11124 -1.93094 -5.00697 -2.94899 -2.26163 
-6.22906 -4.04532 -2.69922 -7.53635 -5.20676 -3.01562 -9.18899 -6.40441 -3.00316 
-1.00803 -1.52737 -0.350443 -1.47141 -2.72119 -0.25999 -1.63311 -2.19119 -0.905245 
-2.19295 -3.84223 -0.191092 -2.28337 -3.34775 -0.800217 -2.58064 -2.8187 -1.26829 
-3.16882 -4.77738 -0.159171 -3.1507 -4.39134 -0.743863 -3.39232 -3.86644 -1.18071 
-3.76224 -3.40217 -1.54671 -4.35819 -5.69059 -0.0782381 -4.1679 -5.40444 -0.715096 
-4.30415 -4.99304 -1.22713 -4.61799 -4.56531 -1.5862 -5.04129 -4.2646 -1.96894 
[...]
POINT_DATA 1002
FIELD FieldData 4
_paraPhi 1 1002 double
6.2831853072 3.1415926536 6.2831853072 3.1415926536 4.7123889804 4.7123889804 1.5707963268 1.5707963268 3.6951670125 
5.7296109483 2.5880182947 0.5535743589 6.2831853072 6.2831853072 6.2831853072 6.2831853072 3.1415926536 3.1415926536 
3.1415926536 3.1415926536 3.1415926536 6.1053039672 5.898798347 5.6768734901 5.4599499503 5.2659633393 5.1032165617 
4.9713148346 4.8656852733 4.7809517865 0.17788134 0.38438696014 0.60631181711 0.82323535693 1.0172219679 1.1799687454 
1.3118704726 1.4175000338 1.5022335207 6.1892828907 6.1070320098 6.035312792 5.9728339911 5.9183214791 5.8706119594 
5.8286879411 5.7916808611 5.7588591896 0.093902416448 0.17615329733 0.2478725152 0.31035131605 0.36486382811 0.41257334776 
0.45449736604 0.4915044461 0.52432611754 3.3194739936 3.5259796137 3.7479044707 3.9648280105 4.1588146215 4.321561399 
4.4534631262 4.5590926874 4.6438261743 2.9637113136 2.7572056934 2.5352808365 2.3183572967 2.1243706857 1.9616239082 
1.829722181 1.7240926197 1.6393591329 3.23549507 3.3177459509 3.3894651688 3.4519439696 3.5064564817 3.5541660013 
3.5960900196 3.6330970997 3.6659187711 3.0476902371 2.9654393563 2.8937201384 2.8312413375 2.7767288255 2.7290193058 
2.6870952876 2.6500882075 2.617266536 6.2831853072 6.2831853072 6.2831853072 6.2831853072 3.1415926536 3.1415926536 
3.1415926536 3.1415926536 3.1415926536 6.1053039672 5.898798347 5.6768734901 5.4599499503 5.2659633393 5.1032165617 
4.9713148346 4.8656852733 4.7809517865 0.17788134 0.38438696014 0.60631181711 0.82323535693 1.0172219679 1.1799687454 
1.3118704726 1.4175000338 1.5022335207 6.1892828907 6.1070320098 6.035312792 5.9728339911 5.9183214791 5.8706119594 
5.8286879411 5.7916808611 5.7588591896 0.093902416448 0.17615329733 0.2478725152 0.31035131605 0.36486382811 0.41257334776 
0.45449736604 0.4915044461 0.52432611754 3.3194739936 3.5259796137 3.7479044707 3.9648280105 4.1588146215 4.321561399 
4.4534631262 4.5590926874 4.6438261743 2.9637113136 2.7572056934 2.5352808365 2.3183572967 2.1243706857 1.9616239082 
1.829722181 1.7240926197 1.6393591329 3.23549507 3.3177459509 3.3894651688 3.4519439696 3.5064564817 3.5541660013 
3.5960900196 3.6330970997 3.6659187711 3.0476902371 2.9654393563 2.8937201384 2.8312413375 2.7767288255 2.7290193058 
2.6870952876 2.6500882075 2.617266536 4.7123889804 4.7123889804 4.7123889804 4.7123889804 4.7123889804 4.7123889804 
4.7123889804 4.7123889804 4.7123889804 4.6087898617 4.4991390697 4.3857031936 4.2712800401 4.1588146215 4.0509635631 
3.94975894 3.8564636551 3.7716124825 4.8159880991 4.9256388911 5.0390747672 5.1534979207 5.2659633393 5.3738143976 
5.4750190208 5.5683143056 5.6531654782 4.6087898617 4.4991390697 4.3857031936 4.2712800401 4.1588146215 4.0509635631 
3.94975894 3.8564636551 3.7716124825 4.8159880991 4.9256388911 5.0390747672 5.1534979207 5.2659633393 5.3738143976 
5.4750190208 5.5683143056 5.6531654782 1.5707963268 1.5707963268 1.5707963268 1.5707963268 1.5707963268 1.5707963268 
1.5707963268 1.5707963268 1.5707963268 1.6743954455 1.7840462375 1.8974821136 2.0119052671 2.1243706857 2.232221744 
2.3334263672 2.426721652 2.5115728246 1.4671972081 1.3575464161 1.24411054 1.1296873865 1.0172219679 0.90937090954 
0.80816628637 0.71487100155 0.63001982895 1.6743954455 1.7840462375 1.8974821136 2.0119052671 2.1243706857 2.232221744 
2.3334263672 2.426721652 2.5115728246 1.4671972081 1.3575464161 1.24411054 1.1296873865 1.0172219679 0.90937090954 
0.80816628637 0.71487100155 0.63001982895 3.6007720849 3.4966939854 3.3839471039 3.2645756454 3.1415926536 3.0186096618 
2.8992382033 2.7864913217 2.6824132222 5.8240058758 5.9280839753 6.0408308569 6.1602023154 6.2831853072 0.12298299178 
0.2423544503 0.35510133185 0.45917943135 6.0560271438 5.7885595667 5.9702140275 5.5125918794 5.6029703303 5.7885595667 
5.2659633393 5.2659633393 5.2659633393 5.2659633393 5.0674903122 5.0120975802 4.9155579264 4.7123889804 4.1588146215 
4.9155579264 4.8353719722 4.7123889804 4.5092200343 4.1588146215 3.6362183941 4.8004512023 4.7123889804 4.5894059886 
4.4126803806 4.1588146215 3.8218076305 3.4545639333 4.7123889804 4.6243267584 4.5092200343 4.3572876485 4.1588146215 
3.9121860814 3.6362183941 3.368750817 6.0174235957 5.9434319871 5.8263323547 5.8809213739 5.7674481418 5.6279784266 
5.8278025282 5.718968232 5.5891129425 5.4372443565 5.7823484065 5.678536687 5.5575666702 5.4192596322 5.2659633393 
5.743164462 5.6444075337 5.5314983644 5.4046708639 5.2659633393 5.1195510325 5.7091357773 5.6152775188 5.5096229709 
5.3926039573 5.2659633393 5.1329233157 4.9978930058 5.6793730533 5.5901633916 5.4910209005 5.3824597928 5.2659633393 
5.1440684722 5.0201624502 4.8979782167 5.5683143056 5.4750190208 5.4750190208 5.3738143976 5.3738143976 5.3738143976 
5.2659633393 5.2659633393 5.2659633393 5.2659633393 5.1534979207 5.1534979207 5.1534979207 5.1534979207 5.1534979207 
5.0390747672 5.0390747672 5.0390747672 5.0390747672 5.0390747672 5.0390747672 4.9256388911 4.9256388911 4.9256388911 
4.9256388911 4.9256388911 4.9256388911 4.9256388911 4.8159880991 4.8159880991 4.8159880991 4.8159880991 4.8159880991 
4.8159880991 4.8159880991 4.8159880991 4.6087898617 4.6087898617 4.4991390697 4.6087898617 4.4991390697 4.3857031936 
4.6087898617 4.4991390697 4.3857031936 4.2712800401 4.6087898617 4.4991390697 4.3857031936 4.2712800401 4.1588146215 
4.6087898617 4.4991390697 4.3857031936 4.2712800401 4.1588146215 4.0509635631 4.6087898617 4.4991390697 4.3857031936 
4.2712800401 4.1588146215 4.0509635631 3.94975894 4.6087898617 4.4991390697 4.3857031936 4.2712800401 4.1588146215 
4.0509635631 3.94975894 3.8564636551 4.526799744 4.4046155105 4.426884955 4.2807094886 4.2918546451 4.3052269283 
4.1588146215 4.1588146215 4.1588146215 4.1588146215 4.042318168 4.0321740035 4.0201070968 4.0055183285 3.9875336042 
3.9337570603 3.9151549899 3.8932795963 3.8672112905 3.8356650183 3.7967995342 3.8346145692 3.809500442 3.7803704271 
3.7462412737 3.7058097288 3.657329819 3.5984456061 3.7454049075 3.7156421835 3.6816134988 3.6424295543 3.5969754326 
3.5438565869 3.4813459737 3.4073543651 3.5642842451 3.4524645613 3.5233842518 3.3320300872 3.403123212 3.4773852225 
3.20576226 3.2746326772 3.348015857 3.4255060145 3.0774230472 3.1415926536 3.2112816139 3.2864685043 3.3668817272 
2.95115522 3.00855263 3.0719036933 3.1415926536 3.2178377658 3.3005964304 2.8307207459 2.8800620952 2.9351694502 
2.9967168029 3.0653475414 3.1415926536 3.225752376 2.718901062 2.7598010554 2.8058000847 2.8576792927 2.91630358 
2.9825888767 3.0574329311 3.1415926536 3.5642842451 3.5233842518 3.4524645613 3.4773852225 3.403123212 3.3320300872 
3.4255060145 3.348015857 3.2746326772 3.20576226 3.3668817272 3.2864685043 3.2112816139 3.1415926536 3.0774230472 
3.3005964304 3.2178377658 3.1415926536 3.0719036933 3.00855263 2.95115522 3.225752376 3.1415926536 3.0653475414 
2.9967168029 2.9351694502 2.8800620952 2.8307207459 3.1415926536 3.0574329311 2.9825888767 2.91630358 2.8576792927 
2.8058000847 2.7598010554 2.718901062 4.526799744 4.426884955 4.4046155105 4.3052269283 4.2918546451 4.2807094886 
4.1588146215 4.1588146215 4.1588146215 4.1588146215 3.9875336042 4.0055183285 4.0201070968 4.0321740035 4.042318168 
3.7967995342 3.8356650183 3.8672112905 3.8932795963 3.9151549899 3.9337570603 3.5984456061 3.657329819 3.7058097288 
3.7462412737 3.7803704271 3.809500442 3.8346145692 3.4073543651 3.4813459737 3.5438565869 3.5969754326 3.6424295543 
3.6816134988 3.7156421835 3.7454049075 4.7123889804 4.8004512023 4.6243267584 4.9155579264 4.7123889804 4.5092200343 
5.0674903122 4.8353719722 4.5894059886 4.3572876485 5.2659633393 5.0120975802 4.7123889804 4.4126803806 4.1588146215 
5.5125918794 5.2659633393 4.9155579264 4.5092200343 4.1588146215 3.9121860814 5.7885595667 5.6029703303 5.2659633393 
4.7123889804 4.1588146215 3.8218076305 3.6362183941 6.0560271438 5.9702140275 5.7885595667 5.2659633393 4.1588146215 
3.6362183941 3.4545639333 3.368750817 0.22715816343 0.49462574053 0.3129712797 0.77059342779 0.68021497688 0.49462574053 
1.0172219679 1.0172219679 1.0172219679 1.0172219679 1.2156949949 1.271087727 1.3676273807 1.5707963268 2.1243706857 
1.3676273807 1.447813335 1.5707963268 1.7739652728 2.1243706857 2.6469669131 1.4827341049 1.5707963268 1.6937793186 
1.8705049266 2.1243706857 2.4613776767 2.8286213739 1.5707963268 1.6588585487 1.7739652728 1.9258976586 2.1243706857 
2.3709992258 2.6469669131 2.9144344902 1.7563855631 1.8785697967 1.8563003522 2.0024758186 1.9913306621 1.9779583789 
2.1243706857 2.1243706857 2.1243706857 2.1243706857 2.2408671392 2.2510113037 2.2630782103 2.2776669786 2.295651703 
2.3494282469 2.3680303173 2.3899057108 2.4159740166 2.4475202889 2.486385773 2.448570738 2.4736848652 2.5028148801 
2.5369440334 2.5773755784 2.6258554882 2.6847397011 2.5377803997 2.5675431237 2.6015718084 2.6407557529 2.6862098746 
2.7393287203 2.8018393335 2.8758309421 1.6743954455 1.6743954455 1.7840462375 1.6743954455 1.7840462375 1.8974821136 
1.6743954455 1.7840462375 1.8974821136 2.0119052671 1.6743954455 1.7840462375 1.8974821136 2.0119052671 2.1243706857 
1.6743954455 1.7840462375 1.8974821136 2.0119052671 2.1243706857 2.232221744 1.6743954455 1.7840462375 1.8974821136 
2.0119052671 2.1243706857 2.232221744 2.3334263672 1.6743954455 1.7840462375 1.8974821136 2.0119052671 2.1243706857 
2.232221744 2.3334263672 2.426721652 1.4671972081 1.3575464161 1.4671972081 1.24411054 1.3575464161 1.4671972081 
1.1296873865 1.24411054 1.3575464161 1.4671972081 1.0172219679 1.1296873865 1.24411054 1.3575464161 1.4671972081 
0.90937090954 1.0172219679 1.1296873865 1.24411054 1.3575464161 1.4671972081 0.80816628637 0.90937090954 1.0172219679 
1.1296873865 1.24411054 1.3575464161 1.4671972081 0.71487100155 0.80816628637 0.90937090954 1.0172219679 1.1296873865 
1.24411054 1.3575464161 1.4671972081 0.60381225391 0.57404952988 0.69302191562 0.54002084522 0.66790778838 0.79216440667 
0.50083690068 0.63877777351 0.77356233629 0.90072551443 0.45538277901 0.60464862014 0.75168694275 0.89058134991 1.0172219679 
0.40226393329 0.56421707518 0.72561863695 0.87851444325 1.0172219679 1.139116835 0.33975332011 0.51573716537 0.69407236469 
0.86392567495 1.0172219679 1.1502619915 1.2630228569 0.26576171152 0.45685295248 0.6552068806 0.84594095064 1.0172219679 
1.1636342747 1.2852923014 1.3852070904 0.22715816343 0.3129712797 0.49462574053 0.49462574053 0.68021497688 0.77059342779 
1.0172219679 1.0172219679 1.0172219679 1.0172219679 2.1243706857 1.5707963268 1.3676273807 1.271087727 1.2156949949 
2.6469669131 2.1243706857 1.7739652728 1.5707963268 1.447813335 1.3676273807 2.8286213739 2.4613776767 2.1243706857 
1.8705049266 1.6937793186 1.5707963268 1.4827341049 2.9144344902 2.6469669131 2.3709992258 2.1243706857 1.9258976586 
1.7739652728 1.6588585487 1.5707963268 1.7563855631 1.8563003522 1.8785697967 1.9779583789 1.9913306621 2.0024758186 
2.1243706857 2.1243706857 2.1243706857 2.1243706857 2.295651703 2.2776669786 2.2630782103 2.2510113037 2.2408671392 
2.486385773 2.4475202889 2.4159740166 2.3899057108 2.3680303173 2.3494282469 2.6847397011 2.6258554882 2.5773755784 
2.5369440334 2.5028148801 2.4736848652 2.448570738 2.8758309421 2.8018393335 2.7393287203 2.6862098746 2.6407557529 
2.6015718084 2.5675431237 2.5377803997 5.8604937156 5.901393709 5.9723133995 5.9473927383 6.0216547488 6.0927478736 
5.9992719463 6.0767621038 6.1501452836 6.2190157008 6.0578962336 6.1383094565 6.2134963469 0 0.064169606361 
6.1241815303 6.206940195 6.2831853072 0.069688960264 0.13304002361 0.19043743361 6.1990255847 0 0.07624511221 
0.14487585072 0.20642320337 0.26153055843 0.3108719077 0 0.084159722458 0.15900377685 0.22528907359 0.28391336087 
0.3357925689 0.38179159818 0.42269159155 5.8604937156 5.9723133995 5.901393709 6.0927478736 6.0216547488 5.9473927383 
6.2190157008 6.1501452836 6.0767621038 5.9992719463 0.064169606361 0 6.2134963469 6.1383094565 6.0578962336 
0.19043743361 0.13304002361 0.069688960264 6.2831853072 6.206940195 6.1241815303 0.3108719077 0.26153055843 0.20642320337 
0.14487585072 0.07624511221 6.2831853072 6.1990255847 0.42269159155 0.38179159818 0.3357925689 0.28391336087 0.22528907359 
0.15900377685 0.084159722458 0 5.6793730533 5.7091357773 5.5901633916 5.743164462 5.6152775188 5.4910209005 
5.7823484065 5.6444075337 5.5096229709 5.3824597928 5.8278025282 5.678536687 5.5314983644 5.3926039573 5.2659633393 
5.8809213739 5.718968232 5.5575666702 5.4046708639 5.2659633393 5.1440684722 5.9434319871 5.7674481418 5.5891129425 
5.4192596322 5.2659633393 5.1329233157 5.0201624502 6.0174235957 5.8263323547 5.6279784266 5.4372443565 5.2659633393 
5.1195510325 4.9978930058 4.8979782167 1.3852070904 1.2852923014 1.2630228569 1.1636342747 1.1502619915 1.139116835 
1.0172219679 1.0172219679 1.0172219679 1.0172219679 0.84594095064 0.86392567495 0.87851444325 0.89058134991 0.90072551443 
0.6552068806 0.69407236469 0.72561863695 0.75168694275 0.77356233629 0.79216440667 0.45685295248 0.51573716537 0.56421707518 
0.60464862014 0.63877777351 0.66790778838 0.69302191562 0.26576171152 0.33975332011 0.40226393329 0.45538277901 0.50083690068 
0.54002084522 0.57404952988 0.60381225391 
_paraPhiHalf 1 1002 double
0 3.1415926536 0 3.1415926536 1.5707963268 1.5707963268 1.5707963268 1.5707963268 2.5880182947 
0.5535743589 2.5880182947 0.5535743589 0 0 0 0 3.1415926536 3.1415926536 
3.1415926536 3.1415926536 3.1415926536 0.17788134 0.38438696014 0.60631181711 0.82323535693 1.0172219679 1.1799687454 
1.3118704726 1.4175000338 1.5022335207 0.17788134 0.38438696014 0.60631181711 0.82323535693 1.0172219679 1.1799687454 
1.3118704726 1.4175000338 1.5022335207 0.093902416448 0.17615329733 0.2478725152 0.31035131605 0.36486382811 0.41257334776 
0.45449736604 0.4915044461 0.52432611754 0.093902416448 0.17615329733 0.2478725152 0.31035131605 0.36486382811 0.41257334776 
0.45449736604 0.4915044461 0.52432611754 2.9637113136 2.7572056934 2.5352808365 2.3183572967 2.1243706857 1.9616239082 
1.829722181 1.7240926197 1.6393591329 2.9637113136 2.7572056934 2.5352808365 2.3183572967 2.1243706857 1.9616239082 
1.829722181 1.7240926197 1.6393591329 3.0476902371 2.9654393563 2.8937201384 2.8312413375 2.7767288255 2.7290193058 
2.6870952876 2.6500882075 2.617266536 3.0476902371 2.9654393563 2.8937201384 2.8312413375 2.7767288255 2.7290193058 
2.6870952876 2.6500882075 2.617266536 0 0 0 0 3.1415926536 3.1415926536 
3.1415926536 3.1415926536 3.1415926536 0.17788134 0.38438696014 0.60631181711 0.82323535693 1.0172219679 1.1799687454 
1.3118704726 1.4175000338 1.5022335207 0.17788134 0.38438696014 0.60631181711 0.82323535693 1.0172219679 1.1799687454 
1.3118704726 1.4175000338 1.5022335207 0.093902416448 0.17615329733 0.2478725152 0.31035131605 0.36486382811 0.41257334776 
0.45449736604 0.4915044461 0.52432611754 0.093902416448 0.17615329733 0.2478725152 0.31035131605 0.36486382811 0.41257334776 
0.45449736604 0.4915044461 0.52432611754 2.9637113136 2.7572056934 2.5352808365 2.3183572967 2.1243706857 1.9616239082 
1.829722181 1.7240926197 1.6393591329 2.9637113136 2.7572056934 2.5352808365 2.3183572967 2.1243706857 1.9616239082 
1.829722181 1.7240926197 1.6393591329 3.0476902371 2.9654393563 2.8937201384 2.8312413375 2.7767288255 2.7290193058 
2.6870952876 2.6500882075 2.617266536 3.0476902371 2.9654393563 2.8937201384 2.8312413375 2.7767288255 2.7290193058 
2.6870952876 2.6500882075 2.617266536 1.5707963268 1.5707963268 1.5707963268 1.5707963268 1.5707963268 1.5707963268 
1.5707963268 1.5707963268 1.5707963268 1.6743954455 1.7840462375 1.8974821136 2.0119052671 2.1243706857 2.232221744 
2.3334263672 2.426721652 2.5115728246 1.4671972081 1.3575464161 1.24411054 1.1296873865 1.0172219679 0.90937090954 
0.80816628637 0.71487100155 0.63001982895 1.6743954455 1.7840462375 1.8974821136 2.0119052671 2.1243706857 2.232221744 
2.3334263672 2.426721652 2.5115728246 1.4671972081 1.3575464161 1.24411054 1.1296873865 1.0172219679 0.90937090954 
0.80816628637 0.71487100155 0.63001982895 1.5707963268 1.5707963268 1.5707963268 1.5707963268 1.5707963268 1.5707963268 
1.5707963268 1.5707963268 1.5707963268 1.6743954455 1.7840462375 1.8974821136 2.0119052671 2.1243706857 2.232221744 
2.3334263672 2.426721652 2.5115728246 1.4671972081 1.3575464161 1.24411054 1.1296873865 1.0172219679 0.90937090954 
0.80816628637 0.71487100155 0.63001982895 1.6743954455 1.7840462375 1.8974821136 2.0119052671 2.1243706857 2.232221744 
2.3334263672 2.426721652 2.5115728246 1.4671972081 1.3575464161 1.24411054 1.1296873865 1.0172219679 0.90937090954 
0.80816628637 0.71487100155 0.63001982895 2.6824132222 2.7864913217 2.8992382033 3.0186096618 3.1415926536 3.0186096618 
2.8992382033 2.7864913217 2.6824132222 0.45917943135 0.35510133185 0.2423544503 0.12298299178 0 0.12298299178 
0.2423544503 0.35510133185 0.45917943135 0.22715816343 0.49462574053 0.3129712797 0.77059342779 0.68021497688 0.49462574053 
1.0172219679 1.0172219679 1.0172219679 1.0172219679 1.2156949949 1.271087727 1.3676273807 1.5707963268 2.1243706857 
1.3676273807 1.447813335 1.5707963268 1.7739652728 2.1243706857 2.6469669131 1.4827341049 1.5707963268 1.6937793186 
1.8705049266 2.1243706857 2.4613776767 2.8286213739 1.5707963268 1.6588585487 1.7739652728 1.9258976586 2.1243706857 
2.3709992258 2.6469669131 2.9144344902 0.26576171152 0.33975332011 0.45685295248 0.40226393329 0.51573716537 0.6552068806 
0.45538277901 0.56421707518 0.69407236469 0.84594095064 0.50083690068 0.60464862014 0.72561863695 0.86392567495 1.0172219679 
0.54002084522 0.63877777351 0.75168694275 0.87851444325 1.0172219679 1.1636342747 0.57404952988 0.66790778838 0.77356233629 
0.89058134991 1.0172219679 1.1502619915 1.2852923014 0.60381225391 0.69302191562 0.79216440667 0.90072551443 1.0172219679 
1.139116835 1.2630228569 1.3852070904 0.71487100155 0.80816628637 0.80816628637 0.90937090954 0.90937090954 0.90937090954 
1.0172219679 1.0172219679 1.0172219679 1.0172219679 1.1296873865 1.1296873865 1.1296873865 1.1296873865 1.1296873865 
1.24411054 1.24411054 1.24411054 1.24411054 1.24411054 1.24411054 1.3575464161 1.3575464161 1.3575464161 
1.3575464161 1.3575464161 1.3575464161 1.3575464161 1.4671972081 1.4671972081 1.4671972081 1.4671972081 1.4671972081 
1.4671972081 1.4671972081 1.4671972081 1.6743954455 1.6743954455 1.7840462375 1.6743954455 1.7840462375 1.8974821136 
1.6743954455 1.7840462375 1.8974821136 2.0119052671 1.6743954455 1.7840462375 1.8974821136 2.0119052671 2.1243706857 
1.6743954455 1.7840462375 1.8974821136 2.0119052671 2.1243706857 2.232221744 1.6743954455 1.7840462375 1.8974821136 
2.0119052671 2.1243706857 2.232221744 2.3334263672 1.6743954455 1.7840462375 1.8974821136 2.0119052671 2.1243706857 
2.232221744 2.3334263672 2.426721652 1.7563855631 1.8785697967 1.8563003522 2.0024758186 1.9913306621 1.9779583789 
2.1243706857 2.1243706857 2.1243706857 2.1243706857 2.2408671392 2.2510113037 2.2630782103 2.2776669786 2.295651703 
2.3494282469 2.3680303173 2.3899057108 2.4159740166 2.4475202889 2.486385773 2.448570738 2.4736848652 2.5028148801 
2.5369440334 2.5773755784 2.6258554882 2.6847397011 2.5377803997 2.5675431237 2.6015718084 2.6407557529 2.6862098746 
2.7393287203 2.8018393335 2.8758309421 2.718901062 2.8307207459 2.7598010554 2.95115522 2.8800620952 2.8058000847 
3.0774230472 3.00855263 2.9351694502 2.8576792927 3.0774230472 3.1415926536 3.0719036933 2.9967168029 2.91630358 
2.95115522 3.00855263 3.0719036933 3.1415926536 3.0653475414 2.9825888767 2.8307207459 2.8800620952 2.9351694502 
2.9967168029 3.0653475414 3.1415926536 3.0574329311 2.718901062 2.7598010554 2.8058000847 2.8576792927 2.91630358 
2.9825888767 3.0574329311 3.1415926536 2.718901062 2.7598010554 2.8307207459 2.8058000847 2.8800620952 2.95115522 
2.8576792927 2.9351694502 3.00855263 3.0774230472 2.91630358 2.9967168029 3.0719036933 3.1415926536 3.0774230472 
2.9825888767 3.0653475414 3.1415926536 3.0719036933 3.00855263 2.95115522 3.0574329311 3.1415926536 3.0653475414 