# vtk DataFile Version 5.1
vtk output
ASCII
DATASET POLYDATA
POINTS 100 float
-3.92058 3.77047 1.37302 -3.92934 3.76215 1.37138 -3.95542 3.7361 1.37027 
-3.99841 3.6934 1.37049 -4.05759 3.63564 1.37315 -4.13181 3.5646 1.37939 
-4.21954 3.48193 1.39017 -4.31883 3.38884 1.40598 -4.42744 3.28595 1.42674 
-4.54305 3.17324 1.45178 -4.66341 3.05016 1.47995 -4.78665 2.91583 1.50981 
-4.91147 2.7694 1.53996 -5.03734 2.61033 1.56923 -5.16454 2.43861 1.59698 
-5.29416 2.25491 1.6231 -5.42784 2.06054 1.64811 -5.56757 1.85732 1.67292 
-5.71535 1.6473 1.69867 -5.87282 1.4325 1.72645 -6.04104 1.21458 1.75705 
-6.22031 0.99468 1.79079 -6.41016 0.773324 1.82742 -6.60941 0.550443 1.86621 
-6.81646 0.325522 1.90605 -7.02956 0.0978048 1.94569 -7.24714 -0.133494 1.98396 
-7.46804 -0.36902 2.01996 -7.69172 -0.609193 2.0532 -7.91824 -0.854221 2.08362 
-8.14822 -1.1042 2.11151 -8.38258 -1.35926 2.13738 -8.6223 -1.61973 2.16179 
-8.86816 -1.88625 2.18518 -9.12046 -2.15976 2.20779 -9.37901 -2.44145 2.22961 
-9.64304 -2.73256 2.25043 -9.91142 -3.03413 2.27005 -10.1828 -3.34678 2.28834 
-10.4562 -3.67054 2.30547 -10.7307 -4.00477 2.32192 -11.0061 -4.34831 2.33851 
-11.2831 -4.69964 2.35621 -11.5624 -5.05731 2.37597 -11.8455 -5.42025 2.39838 
-12.1335 -5.78816 2.42342 -12.4271 -6.16169 2.45025 -12.7261 -6.54251 2.47709 
-13.0292 -6.93312 2.5013 -13.3337 -7.33643 2.51963 -13.6357 -7.75534 2.52854 
-13.9304 -8.19212 2.52465 -14.2121 -8.64793 2.50522 -14.4755 -9.1225 2.46851 
-14.7155 -9.61401 2.41398 -14.9279 -10.1192 2.3424 -15.1103 -10.6339 2.25571 
-15.2613 -11.1532 2.1567 -15.3816 -11.6726 2.04866 -15.473 -12.188 1.93487 
-15.5385 -12.6967 1.81828 -15.5818 -13.1973 1.70118 -15.6067 -13.6893 1.58506 
-15.6169 -14.1737 1.47066 -15.6154 -14.6518 1.3581 -15.6047 -15.1249 1.24713 
-15.5862 -15.5943 1.13747 -15.5608 -16.06 1.02896 -15.5285 -16.5217 0.921817 
-15.4893 -16.978 0.816622 -15.4428 -17.427 0.714281 -15.3889 -17.8667 0.615859 
-15.3275 -18.2952 0.522376 -15.2592 -18.7114 0.434621 -15.1849 -19.1144 0.353004 
-15.1062 -19.5043 0.277515 -15.0249 -19.8816 0.207774 -14.9429 -20.2468 0.143173 
-14.8627 -20.6002 0.0830648 -14.7864 -20.9417 0.0269586 -14.7162 -21.2704 -0.0253291 
-14.6539 -21.5845 -0.0736085 -14.6012 -21.882 -0.117351 -14.5591 -22.1603 -0.155818 
-14.5283 -22.4176 -0.188259 -14.5089 -22.6523 -0.214133 -14.5004 -22.8643 -0.233294 
-14.5021 -23.0543 -0.24611 -14.5127 -23.2245 -0.25347 -14.5306 -23.3774 -0.256689 
-14.5538 -23.516 -0.257311 -14.5806 -23.6431 -0.256867 -14.609 -23.7604 -0.256628 
-14.6373 -23.8686 -0.257413 -14.6638 -23.967 -0.259482 -14.6872 -24.0536 -0.262561 
-14.7064 -24.1257 -0.265957 -14.7206 -24.1802 -0.268771 -14.7292 -24.2142 -0.270142 
-14.7319 -24.2258 -0.269468 
LINES 2 100
OFFSETS vtktypeint64
0 100 
CONNECTIVITY vtktypeint64
0 1 2 3 4 5 6 7 8 
9 10 11 12 13 14 15 16 17 
18 19 20 21 22 23 24 25 26 
27 28 29 30 31 32 33 34 35 
36 37 38 39 40 41 42 43 44 
45 46 47 48 49 50 51 52 53 
54 55 56 57 58 59 60 61 62 
63 64 65 66 67 68 69 70 71 
72 73 74 75 76 77 78 79 80 
81 82 83 84 85 86 87 88 89 
90 91 92 93 94 95 96 97 98 
99 
POINT_DATA 100
FIELD FieldData 3
_theta 1 100 double
0 0.031733259127 0.063466518254 0.095199777382 0.12693303651 0.15866629564 0.19039955476 0.22213281389 0.25386607302 
0.28559933214 0.31733259127 0.3490658504 0.38079910953 0.41253236865 0.44426562778 0.47599888691 0.50773214603 0.53946540516 
0.57119866429 0.60293192342 0.63466518254 0.66639844167 0.6981317008 0.72986495992 0.76159821905 0.79333147818 0.82506473731 
0.85679799643 0.88853125556 0.92026451469 0.95199777382 0.98373103294 1.0154642921 1.0471975512 1.0789308103 1.1106640695 
1.1423973286 1.1741305877 1.2058638468 1.237597106 1.2693303651 1.3010636242 1.3327968833 1.3645301425 1.3962634016 
1.4279966607 1.4597299198 1.491463179 1.5231964381 1.5549296972 1.5866629564 1.6183962155 1.6501294746 1.6818627337 
1.7135959929 1.745329252 1.7770625111 1.8087957702 1.8405290294 1.8722622885 1.9039955476 1.9357288068 1.9674620659 
1.999195325 2.0309285841 2.0626618433 2.0943951024 2.1261283615 2.1578616206 2.1895948798 2.2213281389 2.253061398 
2.2847946572 2.3165279163 2.3482611754 2.3799944345 2.4117276937 2.4434609528 2.4751942119 2.506927471 2.5386607302 
2.5703939893 2.6021272484 2.6338605076 2.6655937667 2.6973270258 2.7290602849 2.7607935441 2.7925268032 2.8242600623 
2.8559933214 2.8877265806 2.9194598397 2.9511930988 2.982926358 3.0146596171 3.0463928762 3.0781261353 3.1098593945 
3.1415926536 
_radius 1 100 double
1.0695084444e-14 0.26423936312 0.52906881783 0.79469124667 1.0607904808 1.3263876426 1.5898066388 1.8487645908 2.1005915403 
2.3425578234 2.5722507952 2.7879150786 2.9886726227 3.1745736279 3.3464796051 3.5058215288 3.6542950783 3.7935530375 
3.9249430775 4.0493266488 4.1670027732 4.2777446262 4.3809342158 4.4757560956 4.5613961761 4.6371960216 4.7027363578 
4.757854307 4.8026210703 4.8373103882 4.8623752409 4.8784324782 4.8862441862 4.8866847483 4.8806893702 4.8691859583 
4.8530137265 4.8328309372 4.8090165681 4.7815799522 4.7501047014 4.7137583465 4.6713886828 4.6217039069 4.5635094042 
4.4959642779 4.4188299804 4.3327018 4.2392231955 4.1412679976 4.043034216 3.9499420426 3.8682068696 3.8040239506 
3.762485703 3.7465673621 3.7565625206 3.7901390494 3.8428920329 3.9091252159 3.9826329367 4.0573679592 4.1279715275 
4.1901797581 4.2411118994 4.2794174182 4.3052424255 4.3199906882 4.3258980658 4.3254932548 4.321057378 4.3141990195 
4.3056234083 4.2951103975 4.2816564439 4.2637059015 4.2393999146 4.2067926774 4.1640086865 4.1093333591 4.0412433389 
3.9583938662 3.8595886031 3.743760608 3.6099903847 3.4575771254 3.2861616318 3.0958758974 2.8874732834 2.6623872612 
2.4226832728 2.1709012665 1.9098190907 1.6421845252 1.3704641974 1.0966486994 0.82214141112 0.54774383279 0.27373178889 
4.7927841062e-14 
_area 1 100 double
0 0.19528950001 0.78405562963 1.7721055676 3.1610425502 4.9404283752 7.082574878 9.5418749862 12.258915929 
15.168123379 18.206502002 21.320555811 24.469222807 27.622695291 30.759284503 33.863234546 36.924690831 39.94019204 
42.910717598 45.836022463 48.707580345 51.504802818 54.197835794 56.755798659 59.155241759 61.383079975 63.431813782 
65.29011969 66.935307785 68.333259662 69.446846017 70.248709499 70.731970419 70.913931091 70.831835708 70.53356994 
70.067631574 69.47543045 68.786730605 68.017811062 67.171835551 66.240738958 65.207500342 64.048287103 62.735664337 
61.244775421 59.562743378 57.699021155 55.693405453 53.618981083 51.577920931 49.688976835 48.068755034 46.813493555 
45.986897622 45.614753762 45.686572057 46.161092533 46.971079232 48.027883638 49.228165912 50.462269309 51.620255627 
52.594523735 53.287647401 53.632836172 53.617037113 53.289411363 52.747657091 52.106113803 51.458009968 50.84892045 
50.273336571 49.691300846 49.051120306 48.30596454 47.420220297 46.367918982 45.128283847 43.682877099 42.016113332 
40.118029797 37.986858698 35.629536127 33.060247177 30.299133244 27.373557982 24.322062919 21.198097627 18.06977001 
15.014214225 12.108668134 9.4221503312 7.0106831675 4.9165648546 3.1702750795 1.7932040514 0.80004852513 0.20046628616 
4.3113086134e-15 
