# vtk DataFile Version 5.1
vtk output
ASCII
DATASET POLYDATA
POINTS 1002 float
-10.41 -1.15889 -2.03265 -16.1423 -17.3904 -3.2851 -7.95621 -3.19558 4.00483 
-14.1501 -17.4782 1.77943 -10.4842 -8.64267 -2.44217 -9.09456 -9.35874 0.936968 
-17.5925 -7.3464 0.323405 -17.2077 -8.89022 4.49494 -8.29682 -25.9573 -2.90787 
-0.865945 -0.0466488 -0.231713 -18.3703 -22.3447 -0.253189 -10.8556 2.84023 2.53914 
-11.051 -2.0681 -2.08793 -11.8027 -3.10189 -2.17222 -12.6582 -4.35949 -2.23862 
-13.5403 -6.0045 -2.19877 -14.3833 -8.04095 -2.13398 -15.1466 -10.2471 -2.23005 
-15.7429 -12.3671 -2.49036 -16.0938 -14.2584 -2.79788 -16.2078 -15.9147 -3.07657 
-10.1171 -1.45246 -2.29429 -9.78552 -1.85329 -2.53214 -9.4299 -2.45594 -2.70129 
-9.1466 -3.19056 -2.85212 -9.02695 -3.96859 -3.084 -9.0921 -4.91855 -3.30112 
-9.33887 -6.03 -3.27448 -9.71169 -7.02441 -3.00113 -10.11 -7.834 -2.68306 
-11.0913 -1.43812 -1.78466 -11.8606 -1.792 -1.52779 -12.723 -2.24755 -1.28681 
-13.6126 -2.78611 -1.05114 -14.4679 -3.40871 -0.813116 -15.264 -4.15781 -0.566625 
-15.9743 -4.97775 -0.321671 -16.5935 -5.78129 -0.0995285 -17.1332 -6.5711 0.111252 
-9.55672 -0.477436 -2.1158 -8.49612 0.168091 -2.11863 -7.24853 0.724393 -2.0678 
-5.97705 1.14661 -2.00284 -4.7604 1.38807 -1.87364 -3.5288 1.41537 -1.68576 
-2.39768 1.23795 -1.49972 -1.5994 0.903609 -1.22122 -1.13387 0.462801 -0.763967 
-10.2248 -0.426151 -1.83239 -10.0692 0.326741 -1.57724 -9.96484 0.992617 -1.22799 
-9.93424 1.56376 -0.797124 -9.97712 2.11125 -0.333099 -10.0969 2.59633 0.137183 
-10.3 2.91739 0.660122 -10.5342 3.04983 1.28893 -10.7258 3.01423 1.95611 
-15.7441 -17.1857 -3.3864 -15.2921 -16.8498 -3.4853 -14.7783 -16.3978 -3.4816 
-14.2349 -15.8514 -3.3371 -13.6922 -15.085 -3.14785 -13.1951 -13.939 -2.9164 
-12.7632 -12.4908 -2.60139 -12.2408 -10.9881 -2.35954 -11.4584 -9.65687 -2.33203 
-16.5835 -16.6245 -3.05917 -16.9644 -15.7547 -2.73186 -17.2863 -14.7435 -2.32746 
-17.559 -13.5793 -1.95265 -17.7512 -12.3773 -1.5994 -17.8203 -11.2407 -1.16884 
-17.7999 -10.1513 -0.718391 -17.757 -9.11108 -0.346987 -17.6953 -8.17194 -0.0174801 
-15.6645 -18.7591 -3.48963 -14.9867 -20.1791 -3.69187 -14.196 -21.5009 -3.92453 
-13.3554 -22.7065 -4.11071 -12.4084 -23.9113 -4.18567 -11.3266 -25.0485 -4.23821 
-10.2328 -25.8499 -4.25288 -9.2871 -26.1883 -4.03212 -8.61605 -26.1698 -3.52733 
-16.2938 -18.3721 -3.31869 -16.4314 -19.3793 -3.28366 -16.5353 -20.3363 -3.13485 
-16.6837 -21.1408 -2.91415 -16.9595 -21.7477 -2.64193 -17.2832 -22.1838 -2.26726 
-17.5959 -22.4777 -1.83281 -17.923 -22.621 -1.38037 -18.2072 -22.579 -0.850226 
-8.73008 -4.10625 4.06667 -9.55843 -5.18751 4.15807 -10.4289 -6.46553 4.20269 
-11.3705 -7.88074 4.03156 -12.3182 -9.44934 3.69896 -13.1086 -11.2158 3.3609 
-13.6549 -12.9989 2.94876 -13.9764 -14.6107 2.45569 -14.1214 -16.0882 2.05132 
-7.77783 -3.62669 3.797 -7.58209 -4.09793 3.57325 -7.46082 -4.6819 3.31393 
-7.47899 -5.36309 3.01776 -7.6059 -6.02153 2.6711 -7.81424 -6.63006 2.25809 
-8.09684 -7.27835 1.84969 -8.40942 -7.98786 1.5204 -8.73358 -8.69754 1.2362 
-8.5607 -3.31277 4.28598 -9.20838 -3.47961 4.59803 -10.0708 -3.74473 4.78011 
-11.2449 -4.19924 4.76779 -12.5432 -4.89237 4.74011 -13.7227 -5.76765 4.79025 
-14.7784 -6.71407 4.81418 -15.7675 -7.60603 4.77677 -16.6055 -8.33648 4.68216 
-7.07417 -2.60808 3.79626 -6.13607 -2.02449 3.48761 -5.20603 -1.4788 3.0703 
-4.24525 -1.00582 2.6708 -3.25244 -0.623249 2.31718 -2.34773 -0.350367 1.913 
-1.59661 -0.173786 1.47205 -1.05325 -0.0566541 0.995163 -0.814783 -0.00855475 0.410049 
-7.62177 -2.32377 4.0717 -7.4 -1.32288 4.0716 -7.3741 -0.32224 4.00789 
-7.51834 0.591295 3.92011 -7.79435 1.43534 3.81461 -8.26464 2.13948 3.66403 
-8.94436 2.58488 3.4608 -9.69231 2.80029 3.21148 -10.3489 2.87465 2.90572 
-13.7663 -17.1269 1.68878 -13.3959 -16.6255 1.60415 -13.0542 -15.9261 1.49594 
-12.7191 -15.0251 1.38998 -12.3194 -13.9896 1.3534 -11.8027 -12.905 1.35511 
-11.1933 -11.8433 1.32685 -10.523 -10.871 1.25899 -9.80749 -10.038 1.1335 
-14.5533 -16.9165 2.04846 -14.9631 -16.3155 2.3923 -15.3583 -15.6736 2.79177 
-15.7515 -14.9273 3.16949 -16.1472 -14.0429 3.49819 -16.5235 -13.0768 3.80712 
-16.8558 -12.0715 4.08541 -17.1052 -11.016 4.2985 -17.2234 -9.93322 4.4348 
-13.8692 -18.6921 1.44847 -13.4996 -19.9695 1.01147 -12.9634 -21.2818 0.539244 
-12.1919 -22.6552 0.162315 -11.266 -23.9664 -0.18736 -10.3172 -25.0229 -0.618758 
-9.40324 -25.7613 -1.0838 -8.65856 -26.1413 -1.60704 -8.27999 -26.164 -2.25 
-14.3928 -18.4905 1.69113 -14.6673 -19.4786 1.57006 -14.9902 -20.3894 1.44837 
-15.3973 -21.1882 1.37529 -15.9362 -21.8208 1.25846 -16.5761 -22.2413 1.04418 
-17.1851 -22.4797 0.834478 -17.6824 -22.5854 0.594825 -18.0775 -22.5486 0.210788 
-10.1091 -8.68637 -2.36706 -9.81353 -8.78417 -2.19443 -9.57117 -8.87969 -1.92032 
-9.30781 -8.92938 -1.60113 -9.04217 -8.97955 -1.24818 -8.85592 -9.08851 -0.825526 
-8.77985 -9.22882 -0.347247 -8.80619 -9.33057 0.132966 -8.92116 -9.36575 0.569482 
-11.3934 -10.3953 -2.23565 -11.9448 -12.8757 -2.26653 -11.8918 -15.5095 -2.59305 
-11.3115 -17.5781 -3.10447 -10.6001 -19.2022 -3.52123 -10.0492 -20.9215 -3.63991 
-9.59287 -22.6514 -3.55969 -9.08574 -24.0565 -3.43221 -8.58869 -25.1292 -3.23027 
-9.133 -7.4796 -2.71504 -7.75694 -6.57456 -2.86714 -6.5703 -5.6183 -2.75369 
-5.44315 -4.5858 -2.46658 -4.23972 -3.64408 -2.14144 -3.13177 -2.77159 -1.80697 
-2.24895 -1.97685 -1.47814 -1.54885 -1.32003 -1.13286 -1.06479 -0.700271 -0.713296 
-9.97148 -10.4999 0.695459 -10.8509 -12.0805 0.324621 -11.3754 -14.325 -0.0971055 
-11.2612 -17.0031 -0.508011 -10.6547 -19.4292 -0.958092 -9.95288 -21.2733 -1.45172 
-9.35996 -22.7585 -1.87723 -8.84447 -24.0505 -2.20768 -8.4318 -25.1251 -2.53596 
-8.12468 -8.37078 0.865259 -7.07211 -7.39408 0.766372 -5.90465 -6.4434 0.689829 
-4.65397 -5.57357 0.595753 -3.45401 -4.78907 0.467126 -2.39104 -3.97814 0.353999 
-1.52361 -3.05205 0.258499 -0.976151 -2.04504 0.138937 -0.791569 -1.02419 -0.027232 
-17.7664 -7.3227 0.699879 -17.9173 -7.27292 1.12127 -18.0423 -7.22375 1.59167 
-18.1385 -7.23746 2.1797 -18.1677 -7.3442 2.83147 -18.0514 -7.53224 3.33894 
-17.8119 -7.80285 3.67878 -17.5896 -8.15443 3.99725 -17.4203 -8.53856 4.29922 
-18.0981 -8.64457 0.303237 -18.6334 -9.98038 0.22908 -19.1867 -11.3111 0.0854302 
-19.6181 -12.9198 -0.133293 -19.752 -15.0474 -0.400916 -19.6525 -17.2949 -0.582237 
-19.4861 -19.0893 -0.579723 -19.2333 -20.4021 -0.481235 -18.8404 -21.465 -0.375309 
-17.1736 -6.06651 0.551786 -16.7063 -4.72718 0.798588 -16.2062 -3.34508 1.04866 
-15.6059 -1.99232 1.30507 -14.8977 -0.785948 1.57843 -14.184 0.269549 1.84496 
-13.4319 1.19293 2.07311 -12.5685 1.91403 2.26001 -11.6842 2.43441 2.41402 
-17.734 -10.0541 4.20414 -18.2719 -11.4319 3.86816 -18.8005 -13.0295 3.52883 
-19.208 -14.6474 3.14491 -19.4158 -16.2297 2.61645 -19.448 -17.8362 1.98041 
-19.3337 -19.2829 1.38375 -19.0865 -20.4495 0.839777 -18.7505 -21.4583 0.286555 
-16.7871 -7.48447 4.65004 -16.2681 -5.84285 4.75433 -15.6787 -4.0392 4.80095 
-15.0541 -2.29592 4.80452 -14.3882 -0.80707 4.71294 -13.6758 0.348201 4.4322 
-12.943 1.18191 3.98601 -12.2076 1.8081 3.48692 -11.4985 2.35061 3.00081 
-8.51608 -26.7398 -2.88348 -9.41775 -27.1732 -2.73792 -10.8864 -27.1451 -2.42986 
-12.4109 -26.8584 -2.06749 -13.664 -26.4203 -1.7469 -14.8088 -25.6913 -1.39522 
-15.9765 -24.8416 -1.01149 -17.0001 -24.0901 -0.708549 -17.7729 -23.2884 -0.480027 
-1.04852 0.984804 -0.0432633 -1.46122 1.95638 0.182763 -2.13129 2.67782 0.425493 
-3.13423 3.20751 0.649186 -4.43514 3.65306 0.894312 -5.88557 3.95734 1.25624 
-7.36796 4.03264 1.69205 -8.74968 3.82113 2.05789 -9.90774 3.36655 2.3209 
-10.83 -2.42966 -2.39219 -10.5716 -2.95777 -2.64388 -11.6723 -3.60377 -2.47483 
-10.2912 -3.67666 -2.77187 -11.524 -4.3231 -2.6748 -12.6237 -5.09473 -2.45858 
-10.1016 -4.44544 -2.87641 -11.3898 -5.15911 -2.74235 -12.6262 -6.04053 -2.57701 
-13.5697 -7.01488 -2.32068 -10.1227 -5.31192 -3.041 -11.3677 -6.03064 -2.80451 
-12.6862 -7.08092 -2.64617 -13.6691 -8.21859 -2.43253 -14.4098 -9.29253 -2.2624 
-10.3899 -6.43421 -3.06969 -11.5226 -7.14436 -2.83976 -12.7685 -8.2938 -2.71414 
-13.7795 -9.59692 -2.58808 -14.4503 -10.7236 -2.46693 -15.1 -11.6369 -2.45934 
-10.807 -7.61489 -2.83353 -11.8176 -8.49246 -2.69893 -12.8188 -9.75876 -2.6967 
-13.7393 -11.162 -2.72288 -14.401 -12.2966 -2.72433 -14.9693 -13.1155 -2.76848 
-15.5777 -13.757 -2.81678 -11.1945 -8.65026 -2.52542 -12.1023 -9.78551 -2.476 
-12.8268 -11.2115 -2.61491 -13.5083 -12.6848 -2.805 -14.1333 -13.8312 -2.94433 
-14.6903 -14.5778 -3.08118 -15.2566 -15.1304 -3.17197 -15.7847 -15.5816 -3.15407 
-9.14089 -0.79606 -2.3333 -7.93944 -0.226575 -2.28365 -8.68578 -1.29052 -2.51326 
-6.59793 0.227257 -2.22069 -7.38484 -0.849168 -2.44628 -8.27844 -1.99557 -2.68923 
-5.29888 0.581425 -2.16746 -6.00899 -0.47219 -2.40618 -6.97281 -1.61717 -2.6601 
-8.04254 -2.77308 -2.9273 -4.0538 0.746785 -2.03725 -4.72846 -0.169068 -2.34987 
-5.64157 -1.28117 -2.59293 -6.8079 -2.41876 -2.87861 -7.98146 -3.63507 -3.1989 
-2.8541 0.599522 -1.83716 -3.54314 -0.155544 -2.18631 -4.45302 -1.14588 -2.4594 
-5.59362 -2.22481 -2.67798 -6.83231 -3.39732 -3.02621 -8.05459 -4.72612 -3.33974 
-1.92631 0.215016 -1.58714 -2.53469 -0.477058 -1.92343 -3.42614 -1.33712 -2.23809 
-4.56127 -2.32922 -2.46197 -5.79255 -3.36963 -2.71464 -6.99673 -4.5863 -3.08172 
-8.28786 -5.85314 -3.24402 -1.37943 -0.237646 -1.20862 -1.89216 -0.906509 -1.57047 
-2.66622 -1.66453 -1.89945 -3.71254 -2.57522 -2.20019 -4.94457 -3.52109 -2.45949 
-6.13928 -4.56142 -2.76304 -7.31206 -5.69663 -3.02742 -8.66683 -6.74749 -2.99312 
-1.17312 -1.64339 -0.524223 -1.54816 -2.66636 -0.379582 -1.8745 -2.25558 -0.963672 
-2.18632 -3.7571 -0.280296 -2.40021 -3.34075 -0.839717 -2.72721 -2.95809 -1.32361 
-3.04645 -4.74268 -0.156088 -3.06862 -4.48068 -0.757985 -3.34841 -4.04787 -1.22084 
-3.7119 -3.75341 -1.6878 -4.15252 -5.5517 0.039561 -3.94977 -5.46126 -0.625858 
-4.09595 -5.16264 -1.17387 -4.42191 -4.82307 -1.62395 -4.88564 -4.66058 -2.08985 
[...]
POINT_DATA 1002
FIELD FieldData 4
_paraPhi 1 1002 double
6.2831853072 3.1415926536 6.2831853072 3.1415926536 4.7123889804 4.7123889804 1.5707963268 1.5707963268 3.6951670125 
5.7296109483 2.5880182947 0.5535743589 6.2831853072 6.2831853072 6.2831853072 6.2831853072 3.1415926536 3.1415926536 
3.1415926536 3.1415926536 3.1415926536 6.1053039672 5.898798347 5.6768734901 5.4599499503 5.2659633393 5.1032165617 
4.9713148346 4.8656852733 4.7809517865 0.17788134 0.38438696014 0.60631181711 0.82323535693 1.0172219679 1.1799687454 
1.3118704726 1.4175000338 1.5022335207 6.1892828907 6.1070320098 6.035312792 5.9728339911 5.9183214791 5.8706119594 
5.8286879411 5.7916808611 5.7588591896 0.093902416448 0.17615329733 0.2478725152 0.31035131605 0.36486382811 0.41257334776 
0.45449736604 0.4915044461 0.52432611754 3.3194739936 3.5259796137 3.7479044707 3.9648280105 4.1588146215 4.321561399 
4.4534631262 4.5590926874 4.6438261743 2.9637113136 2.7572056934 2.5352808365 2.3183572967 2.1243706857 1.9616239082 
1.829722181 1.7240926197 1.6393591329 3.23549507 3.3177459509 3.3894651688 3.4519439696 3.5064564817 3.5541660013 
3.5960900196 3.6330970997 3.6659187711 3.0476902371 2.9654393563 2.8937201384 2.8312413375 2.7767288255 2.7290193058 
2.6870952876 2.6500882075 2.617266536 6.2831853072 6.2831853072 6.2831853072 6.2831853072 3.1415926536 3.1415926536 
3.1415926536 3.1415926536 3.1415926536 6.1053039672 5.898798347 5.6768734901 5.4599499503 5.2659633393 5.1032165617 
4.9713148346 4.8656852733 4.7809517865 0.17788134 0.38438696014 0.60631181711 0.82323535693 1.0172219679 1.1799687454 
1.3118704726 1.4175000338 1.5022335207 6.1892828907 6.1070320098 6.035312792 5.9728339911 5.9183214791 5.8706119594 
5.8286879411 5.7916808611 5.7588591896 0.093902416448 0.17615329733 0.2478725152 0.31035131605 0.36486382811 0.41257334776 
0.45449736604 0.4915044461 0.52432611754 3.3194739936 3.5259796137 3.7479044707 3.9648280105 4.1588146215 4.321561399 
4.4534631262 4.5590926874 4.6438261743 2.9637113136 2.7572056934 2.5352808365 2.3183572967 2.1243706857 1.9616239082 
1.829722181 1.7240926197 1.6393591329 3.23549507 3.3177459509 3.3894651688 3.4519439696 3.5064564817 3.5541660013 
3.5960900196 3.6330970997 3.6659187711 3.0476902371 2.9654393563 2.8937201384 2.8312413375 2.7767288255 2.7290193058 
2.6870952876 2.6500882075 2.617266536 4.7123889804 4.7123889804 4.7123889804 4.7123889804 4.7123889804 4.7123889804 
4.7123889804 4.7123889804 4.7123889804 4.6087898617 4.4991390697 4.3857031936 4.2712800401 4.1588146215 4.0509635631 
3.94975894 3.8564636551 3.7716124825 4.8159880991 4.9256388911 5.0390747672 5.1534979207 5.2659633393 5.3738143976 
5.4750190208 5.5683143056 5.6531654782 4.6087898617 4.4991390697 4.3857031936 4.2712800401 4.1588146215 4.0509635631 
3.94975894 3.8564636551 3.7716124825 4.8159880991 4.9256388911 5.0390747672 5.1534979207 5.2659633393 5.3738143976 
5.4750190208 5.5683143056 5.6531654782 1.5707963268 1.5707963268 1.5707963268 1.5707963268 1.5707963268 1.5707963268 
1.5707963268 1.5707963268 1.5707963268 1.6743954455 1.7840462375 1.8974821136 2.0119052671 2.1243706857 2.232221744 
2.3334263672 2.426721652 2.5115728246 1.4671972081 1.3575464161 1.24411054 1.1296873865 1.0172219679 0.90937090954 
0.80816628637 0.71487100155 0.63001982895 1.6743954455 1.7840462375 1.8974821136 2.0119052671 2.1243706857 2.232221744 
2.3334263672 2.426721652 2.5115728246 1.4671972081 1.3575464161 1.24411054 1.1296873865 1.0172219679 0.90937090954 
0.80816628637 0.71487100155 0.63001982895 3.6007720849 3.4966939854 3.3839471039 3.2645756454 3.1415926536 3.0186096618 
2.8992382033 2.7864913217 2.6824132222 5.8240058758 5.9280839753 6.0408308569 6.1602023154 6.2831853072 0.12298299178 
0.2423544503 0.35510133185 0.45917943135 6.0560271438 5.7885595667 5.9702140275 5.5125918794 5.6029703303 5.7885595667 
5.2659633393 5.2659633393 5.2659633393 5.2659633393 5.0674903122 5.0120975802 4.9155579264 4.7123889804 4.1588146215 
4.9155579264 4.8353719722 4.7123889804 4.5092200343 4.1588146215 3.6362183941 4.8004512023 4.7123889804 4.5894059886 
4.4126803806 4.1588146215 3.8218076305 3.4545639333 4.7123889804 4.6243267584 4.5092200343 4.3572876485 4.1588146215 
3.9121860814 3.6362183941 3.368750817 6.0174235957 5.9434319871 5.8263323547 5.8809213739 5.7674481418 5.6279784266 
5.8278025282 5.718968232 5.5891129425 5.4372443565 5.7823484065 5.678536687 5.5575666702 5.4192596322 5.2659633393 
5.743164462 5.6444075337 5.5314983644 5.4046708639 5.2659633393 5.1195510325 5.7091357773 5.6152775188 5.5096229709 
5.3926039573 5.2659633393 5.1329233157 4.9978930058 5.6793730533 5.5901633916 5.4910209005 5.3824597928 5.2659633393 
5.1440684722 5.0201624502 4.8979782167 5.5683143056 5.4750190208 5.4750190208 5.3738143976 5.3738143976 5.3738143976 
5.2659633393 5.2659633393 5.2659633393 5.2659633393 5.1534979207 5.1534979207 5.1534979207 5.1534979207 5.1534979207 
5.0390747672 5.0390747672 5.0390747672 5.0390747672 5.0390747672 5.0390747672 4.9256388911 4.9256388911 4.9256388911 
4.9256388911 4.9256388911 4.9256388911 4.9256388911 4.8159880991 4.8159880991 4.8159880991 4.8159880991 4.8159880991 
4.8159880991 4.8159880991 4.8159880991 4.6087898617 4.6087898617 4.4991390697 4.6087898617 4.4991390697 4.3857031936 
4.6087898617 4.4991390697 4.3857031936 4.2712800401 4.6087898617 4.4991390697 4.3857031936 4.2712800401 4.1588146215 
4.6087898617 4.4991390697 4.3857031936 4.2712800401 4.1588146215 4.0509635631 4.6087898617 4.4991390697 4.3857031936 
4.2712800401 4.1588146215 4.0509635631 3.94975894 4.6087898617 4.4991390697 4.3857031936 4.2712800401 4.1588146215 
4.0509635631 3.94975894 3.8564636551 4.526799744 4.4046155105 4.426884955 4.2807094886 4.2918546451 4.3052269283 
4.1588146215 4.1588146215 4.1588146215 4.1588146215 4.042318168 4.0321740035 4.0201070968 4.0055183285 3.9875336042 
3.9337570603 3.9151549899 3.8932795963 3.8672112905 3.8356650183 3.7967995342 3.8346145692 3.809500442 3.7803704271 
3.7462412737 3.7058097288 3.657329819 3.5984456061 3.7454049075 3.7156421835 3.6816134988 3.6424295543 3.5969754326 
3.5438565869 3.4813459737 3.4073543651 3.5642842451 3.4524645613 3.5233842518 3.3320300872 3.403123212 3.4773852225 
3.20576226 3.2746326772 3.348015857 3.4255060145 3.0774230472 3.1415926536 3.2112816139 3.2864685043 3.3668817272 
2.95115522 3.00855263 3.0719036933 3.1415926536 3.2178377658 3.3005964304 2.8307207459 2.8800620952 2.9351694502 
2.9967168029 3.0653475414 3.1415926536 3.225752376 2.718901062 2.7598010554 2.8058000847 2.8576792927 2.91630358 
2.9825888767 3.0574329311 3.1415926536 3.5642842451 3.5233842518 3.4524645613 3.4773852225 3.403123212 3.3320300872 
3.4255060145 3.348015857 3.2746326772 3.20576226 3.3668817272 3.2864685043 3.2112816139 3.1415926536 3.0774230472 
3.3005964304 3.2178377658 3.1415926536 3.0719036933 3.00855263 2.95115522 3.225752376 3.1415926536 3.0653475414 
2.9967168029 2.9351694502 2.8800620952 2.8307207459 3.1415926536 3.0574329311 2.9825888767 2.91630358 2.8576792927 
2.8058000847 2.7598010554 2.718901062 4.526799744 4.426884955 4.4046155105 4.3052269283 4.2918546451 4.2807094886 
4.1588146215 4.1588146215 4.1588146215 4.1588146215 3.9875336042 4.0055183285 4.0201070968 4.0321740035 4.042318168 
3.7967995342 3.8356650183 3.8672112905 3.8932795963 3.9151549899 3.9337570603 3.5984456061 3.657329819 3.7058097288 
3.7462412737 3.7803704271 3.809500442 3.8346145692 3.4073543651 3.4813459737 3.5438565869 3.5969754326 3.6424295543 
3.6816134988 3.7156421835 3.7454049075 4.7123889804 4.8004512023 4.6243267584 4.9155579264 4.7123889804 4.5092200343 
5.0674903122 4.8353719722 4.5894059886 4.3572876485 5.2659633393 5.0120975802 4.7123889804 4.4126803806 4.1588146215 
5.5125918794 5.2659633393 4.9155579264 4.5092200343 4.1588146215 3.9121860814 5.7885595667 5.6029703303 5.2659633393 
4.7123889804 4.1588146215 3.8218076305 3.6362183941 6.0560271438 5.9702140275 5.7885595667 5.2659633393 4.1588146215 
3.6362183941 3.4545639333 3.368750817 0.22715816343 0.49462574053 0.3129712797 0.77059342779 0.68021497688 0.49462574053 
1.0172219679 1.0172219679 1.0172219679 1.0172219679 1.2156949949 1.271087727 1.3676273807 1.5707963268 2.1243706857 
1.3676273807 1.447813335 1.5707963268 1.7739652728 2.1243706857 2.6469669131 1.4827341049 1.5707963268 1.6937793186 
1.8705049266 2.1243706857 2.4613776767 2.8286213739 1.5707963268 1.6588585487 1.7739652728 1.9258976586 2.1243706857 
2.3709992258 2.6469669131 2.9144344902 1.7563855631 1.8785697967 1.8563003522 2.0024758186 1.9913306621 1.9779583789 
2.1243706857 2.1243706857 2.1243706857 2.1243706857 2.2408671392 2.2510113037 2.2630782103 2.2776669786 2.295651703 
2.3494282469 2.3680303173 2.3899057108 2.4159740166 2.4475202889 2.486385773 2.448570738 2.4736848652 2.5028148801 
2.5369440334 2.5773755784 2.6258554882 2.6847397011 2.5377803997 2.5675431237 2.6015718084 2.6407557529 2.6862098746 
2.7393287203 2.8018393335 2.8758309421 1.6743954455 1.6743954455 1.7840462375 1.6743954455 1.7840462375 1.8974821136 
1.6743954455 1.7840462375 1.8974821136 2.0119052671 1.6743954455 1.7840462375 1.8974821136 2.0119052671 2.1243706857 
1.6743954455 1.7840462375 1.8974821136 2.0119052671 2.1243706857 2.232221744 1.6743954455 1.7840462375 1.8974821136 
2.0119052671 2.1243706857 2.232221744 2.3334263672 1.6743954455 1.7840462375 1.8974821136 2.0119052671 2.1243706857 
2.232221744 2.3334263672 2.426721652 1.4671972081 1.3575464161 1.4671972081 1.24411054 1.3575464161 1.4671972081 
1.1296873865 1.24411054 1.3575464161 1.4671972081 1.0172219679 1.1296873865 1.24411054 1.3575464161 1.4671972081 
0.90937090954 1.0172219679 1.1296873865 1.24411054 1.3575464161 1.4671972081 0.80816628637 0.90937090954 1.0172219679 
1.1296873865 1.24411054 1.3575464161 1.4671972081 0.71487100155 0.80816628637 0.90937090954 1.0172219679 1.1296873865 
1.24411054 1.3575464161 1.4671972081 0.60381225391 0.57404952988 0.69302191562 0.54002084522 0.66790778838 0.79216440667 
0.50083690068 0.63877777351 0.77356233629 0.90072551443 0.45538277901 0.60464862014 0.75168694275 0.89058134991 1.0172219679 
0.40226393329 0.56421707518 0.72561863695 0.87851444325 1.0172219679 1.139116835 0.33975332011 0.51573716537 0.69407236469 
0.86392567495 1.0172219679 1.1502619915 1.2630228569 0.26576171152 0.45685295248 0.6552068806 0.84594095064 1.0172219679 
1.1636342747 1.2852923014 1.3852070904 0.22715816343 0.3129712797 0.49462574053 0.49462574053 0.68021497688 0.77059342779 
1.0172219679 1.0172219679 1.0172219679 1.0172219679 2.1243706857 1.5707963268 1.3676273807 1.271087727 1.2156949949 
2.6469669131 2.1243706857 1.7739652728 1.5707963268 1.447813335 1.3676273807 2.8286213739 2.4613776767 2.1243706857 
1.8705049266 1.6937793186 1.5707963268 1.4827341049 2.9144344902 2.6469669131 2.3709992258 2.1243706857 1.9258976586 
1.7739652728 1.6588585487 1.5707963268 1.7563855631 1.8563003522 1.8785697967 1.9779583789 1.9913306621 2.0024758186 
2.1243706857 2.1243706857 2.1243706857 2.1243706857 2.295651703 2.2776669786 2.2630782103 2.2510113037 2.2408671392 
2.486385773 2.4475202889 2.4159740166 2.3899057108 2.3680303173 2.3494282469 2.6847397011 2.6258554882 2.5773755784 
2.5369440334 2.5028148801 2.4736848652 2.448570738 2.8758309421 2.8018393335 2.7393287203 2.6862098746 2.6407557529 
2.6015718084 2.5675431237 2.5377803997 5.8604937156 5.901393709 5.9723133995 5.9473927383 6.0216547488 6.0927478736 
5.9992719463 6.0767621038 6.1501452836 6.2190157008 6.0578962336 6.1383094565 6.2134963469 0 0.064169606361 
6.1241815303 6.206940195 6.2831853072 0.069688960264 0.13304002361 0.19043743361 6.1990255847 0 0.07624511221 
0.14487585072 0.20642320337 0.26153055843 0.3108719077 0 0.084159722458 0.15900377685 0.22528907359 0.28391336087 
0.3357925689 0.38179159818 0.42269159155 5.8604937156 5.9723133995 5.901393709 6.0927478736 6.0216547488 5.9473927383 
6.2190157008 6.1501452836 6.0767621038 5.9992719463 0.064169606361 0 6.2134963469 6.1383094565 6.0578962336 
0.19043743361 0.13304002361 0.069688960264 6.2831853072 6.206940195 6.1241815303 0.3108719077 0.26153055843 0.20642320337 
0.14487585072 0.07624511221 6.2831853072 6.1990255847 0.42269159155 0.38179159818 0.3357925689 0.28391336087 0.22528907359 
0.15900377685 0.084159722458 0 5.6793730533 5.7091357773 5.5901633916 5.743164462 5.6152775188 5.4910209005 
5.7823484065 5.6444075337 5.5096229709 5.3824597928 5.8278025282 5.678536687 5.5314983644 5.3926039573 5.2659633393 
5.8809213739 5.718968232 5.5575666702 5.4046708639 5.2659633393 5.1440684722 5.9434319871 5.7674481418 5.5891129425 
5.4192596322 5.2659633393 5.1329233157 5.0201624502 6.0174235957 5.8263323547 5.6279784266 5.4372443565 5.2659633393 
5.1195510325 4.9978930058 4.8979782167 1.3852070904 1.2852923014 1.2630228569 1.1636342747 1.1502619915 1.139116835 
1.0172219679 1.0172219679 1.0172219679 1.0172219679 0.84594095064 0.86392567495 0.87851444325 0.89058134991 0.90072551443 
0.6552068806 0.69407236469 0.72561863695 0.75168694275 0.77356233629 0.79216440667 0.45685295248 0.51573716537 0.56421707518 
0.60464862014 0.63877777351 0.66790778838 0.69302191562 0.26576171152 0.33975332011 0.40226393329 0.45538277901 0.50083690068 
0.54002084522 0.57404952988 0.60381225391 
_paraPhiHalf 1 1002 double
0 3.1415926536 0 3.1415926536 1.5707963268 1.5707963268 1.5707963268 1.5707963268 2.5880182947 
0.5535743589 2.5880182947 0.5535743589 0 0 0 0 3.1415926536 3.1415926536 
3.1415926536 3.1415926536 3.1415926536 0.17788134 0.38438696014 0.60631181711 0.82323535693 1.0172219679 1.1799687454 
1.3118704726 1.4175000338 1.5022335207 0.17788134 0.38438696014 0.60631181711 0.82323535693 1.0172219679 1.1799687454 
1.3118704726 1.4175000338 1.5022335207 0.093902416448 0.17615329733 0.2478725152 0.31035131605 0.36486382811 0.41257334776 
0.45449736604 0.4915044461 0.52432611754 0.093902416448 0.17615329733 0.2478725152 0.31035131605 0.36486382811 0.41257334776 
0.45449736604 0.4915044461 0.52432611754 2.9637113136 2.7572056934 2.5352808365 2.3183572967 2.1243706857 1.9616239082 
1.829722181 1.7240926197 1.6393591329 2.9637113136 2.7572056934 2.5352808365 2.3183572967 2.1243706857 1.9616239082 
1.829722181 1.7240926197 1.6393591329 3.0476902371 2.9654393563 2.8937201384 2.8312413375 2.7767288255 2.7290193058 
2.6870952876 2.6500882075 2.617266536 3.0476902371 2.9654393563 2.8937201384 2.8312413375 2.7767288255 2.7290193058 
2.6870952876 2.6500882075 2.617266536 0 0 0 0 3.1415926536 3.1415926536 
3.1415926536 3.1415926536 3.1415926536 0.17788134 0.38438696014 0.60631181711 0.82323535693 1.0172219679 1.1799687454 
1.3118704726 1.4175000338 1.5022335207 0.17788134 0.38438696014 0.60631181711 0.82323535693 1.0172219679 1.1799687454 
1.3118704726 1.4175000338 1.5022335207 0.093902416448 0.17615329733 0.2478725152 0.31035131605 0.36486382811 0.41257334776 
0.45449736604 0.4915044461 0.52432611754 0.093902416448 0.17615329733 0.2478725152 0.31035131605 0.36486382811 0.41257334776 
0.45449736604 0.4915044461 0.52432611754 2.9637113136 2.7572056934 2.5352808365 2.3183572967 2.1243706857 1.9616239082 
1.829722181 1.7240926197 1.6393591329 2.9637113136 2.7572056934 2.5352808365 2.3183572967 2.1243706857 1.9616239082 
1.829722181 1.7240926197 1.6393591329 3.0476902371 2.9654393563 2.8937201384 2.8312413375 2.7767288255 2.7290193058 
2.6870952876 2.6500882075 2.617266536 3.0476902371 2.9654393563 2.8937201384 2.8312413375 2.7767288255 2.7290193058 
2.6870952876 2.6500882075 2.617266536 1.5707963268 1.5707963268 1.5707963268 1.5707963268 1.5707963268 1.5707963268 
1.5707963268 1.5707963268 1.5707963268 1.6743954455 1.7840462375 1.8974821136 2.0119052671 2.1243706857 2.232221744 
2.3334263672 2.426721652 2.5115728246 1.4671972081 1.3575464161 1.24411054 1.1296873865 1.0172219679 0.90937090954 
0.80816628637 0.71487100155 0.63001982895 1.6743954455 1.7840462375 1.8974821136 2.0119052671 2.1243706857 2.232221744 
2.3334263672 2.426721652 2.5115728246 1.4671972081 1.3575464161 1.24411054 1.1296873865 1.0172219679 0.90937090954 
0.80816628637 0.71487100155 0.63001982895 1.5707963268 1.5707963268 1.5707963268 1.5707963268 1.5707963268 1.5707963268 
1.5707963268 1.5707963268 1.5707963268 1.6743954455 1.7840462375 1.8974821136 2.0119052671 2.1243706857 2.232221744 
2.3334263672 2.426721652 2.5115728246 1.4671972081 1.3575464161 1.24411054 1.1296873865 1.0172219679 0.90937090954 
0.80816628637 0.71487100155 0.63001982895 1.6743954455 1.7840462375 1.8974821136 2.0119052671 2.1243706857 2.232221744 
2.3334263672 2.426721652 2.5115728246 1.4671972081 1.3575464161 1.24411054 1.1296873865 1.0172219679 0.90937090954 
0.80816628637 0.71487100155 0.63001982895 2.6824132222 2.7864913217 2.8992382033 3.0186096618 3.1415926536 3.0186096618 
2.8992382033 2.7864913217 2.6824132222 0.45917943135 0.35510133185 0.2423544503 0.12298299178 0 0.12298299178 
0.2423544503 0.35510133185 0.45917943135 0.22715816343 0.49462574053 0.3129712797 0.77059342779 0.68021497688 0.49462574053 
1.0172219679 1.0172219679 1.0172219679 1.0172219679 1.2156949949 1.271087727 1.3676273807 1.5707963268 2.1243706857 
1.3676273807 1.447813335 1.5707963268 1.7739652728 2.1243706857 2.6469669131 1.4827341049 1.5707963268 1.6937793186 
1.8705049266 2.1243706857 2.4613776767 2.8286213739 1.5707963268 1.6588585487 1.7739652728 1.9258976586 2.1243706857 
2.3709992258 2.6469669131 2.9144344902 0.26576171152 0.33975332011 0.45685295248 0.40226393329 0.51573716537 0.6552068806 
0.45538277901 0.56421707518 0.69407236469 0.84594095064 0.50083690068 0.60464862014 0.72561863695 0.86392567495 1.0172219679 
0.54002084522 0.63877777351 0.75168694275 0.87851444325 1.0172219679 1.1636342747 0.57404952988 0.66790778838 0.77356233629 
0.89058134991 1.0172219679 1.1502619915 1.2852923014 0.60381225391 0.69302191562 0.79216440667 0.90072551443 1.0172219679 
1.139116835 1.2630228569 1.3852070904 0.71487100155 0.80816628637 0.80816628637 0.90937090954 0.90937090954 0.90937090954 
1.0172219679 1.0172219679 1.0172219679 1.0172219679 1.1296873865 1.1296873865 1.1296873865 1.1296873865 1.1296873865 
1.24411054 1.24411054 1.24411054 1.24411054 1.24411054 1.24411054 1.3575464161 1.3575464161 1.3575464161 
1.3575464161 1.3575464161 1.3575464161 1.3575464161 1.4671972081 1.4671972081 1.4671972081 1.4671972081 1.4671972081 
1.4671972081 1.4671972081 1.4671972081 1.6743954455 1.6743954455 1.7840462375 1.6743954455 1.7840462375 1.8974821136 
1.6743954455 1.7840462375 1.8974821136 2.0119052671 1.6743954455 1.7840462375 1.8974821136 2.0119052671 2.1243706857 
1.6743954455 1.7840462375 1.8974821136 2.0119052671 2.1243706857 2.232221744 1.6743954455 1.7840462375 1.8974821136 
2.0119052671 2.1243706857 2.232221744 2.3334263672 1.6743954455 1.7840462375 1.8974821136 2.0119052671 2.1243706857 
2.232221744 2.3334263672 2.426721652 1.7563855631 1.8785697967 1.8563003522 2.0024758186 1.9913306621 1.9779583789 
2.1243706857 2.1243706857 2.1243706857 2.1243706857 2.2408671392 2.2510113037 2.2630782103 2.2776669786 2.295651703 
2.3494282469 2.3680303173 2.3899057108 2.4159740166 2.4475202889 2.486385773 2.448570738 2.4736848652 2.5028148801 
2.5369440334 2.5773755784 2.6258554882 2.6847397011 2.5377803997 2.5675431237 2.6015718084 2.6407557529 2.6862098746 
2.7393287203 2.8018393335 2.8758309421 2.718901062 2.8307207459 2.7598010554 2.95115522 2.8800620952 2.8058000847 
3.0774230472 3.00855263 2.9351694502 2.8576792927 3.0774230472 3.1415926536 3.0719036933 2.9967168029 2.91630358 
2.95115522 3.00855263 3.0719036933 3.1415926536 3.0653475414 2.9825888767 2.8307207459 2.8800620952 2.9351694502 
2.9967168029 3.0653475414 3.1415926536 3.0574329311 2.718901062 2.7598010554 2.8058000847 2.8576792927 2.91630358 
2.9825888767 3.0574329311 3.1415926536 2.718901062 2.7598010554 2.8307207459 2.8058000847 2.8800620952 2.95115522 
2.8576792927 2.9351694502 3.00855263 3.0774230472 2.91630358 2.9967168029 3.0719036933 3.1415926536 3.0774230472 
2.9825888767 3.0653475414 3.1415926536 3.0719036933 3.00855263 2.95115522 3.0574329311 3.1415926536 3.0653475414 