# vtk DataFile Version 5.1
vtk output
ASCII
DATASET POLYDATA
POINTS 1002 float
-11.5681 -0.137105 -2.55868 -23.9722 -13.4431 -5.2625 -10.7441 -3.1108 3.93437 
-22.6364 -14.358 0.190255 -15.3623 -7.87371 -3.61785 -14.0601 -8.53814 0.114153 
-21.3113 -3.22941 -1.02837 -22.1959 -5.17747 3.12745 -20.9031 -25.5133 -4.92792 
-1.61357 -2.72233 0.201086 -28.5791 -17.1517 -2.44023 -10.4636 4.26432 2.35188 
-12.6057 -0.730049 -2.78826 -13.8313 -1.46151 -3.03617 -15.2371 -2.4179 -3.2492 
-16.7732 -3.68156 -3.41071 -18.4039 -5.25624 -3.59032 -20.042 -7.02775 -3.86725 
-21.4882 -8.82947 -4.22571 -22.5992 -10.5317 -4.60875 -23.3993 -12.0707 -4.97172 
-11.3964 -0.547424 -2.82835 -11.3213 -1.02275 -3.1022 -11.3676 -1.6475 -3.33991 
-11.4564 -2.37689 -3.56706 -11.53 -3.09067 -3.75358 -11.758 -3.88417 -3.80145 
-12.3603 -4.89079 -3.77121 -13.3069 -5.98442 -3.77464 -14.3772 -6.98958 -3.74936 
-12.4226 -0.0806774 -2.44634 -13.3921 -0.077306 -2.3405 -14.4292 -0.160163 -2.22341 
-15.502 -0.324262 -2.08286 -16.5943 -0.605168 -1.90616 -17.6603 -1.01409 -1.71225 
-18.6838 -1.47441 -1.55379 -19.6633 -1.98296 -1.4104 -20.5471 -2.58771 -1.22535 
-10.4367 0.155239 -2.51355 -9.17505 0.408668 -2.47331 -7.77345 0.567558 -2.39882 
-6.31066 0.588659 -2.26924 -4.87558 0.384157 -2.08222 -3.53474 -0.127598 -1.79401 
-2.45336 -0.816527 -1.36686 -1.7931 -1.48846 -0.843189 -1.54602 -2.11873 -0.300465 
-11.1033 0.491221 -2.28806 -10.6564 1.19691 -2.04458 -10.3055 1.88153 -1.74864 
-10.0854 2.4707 -1.30206 -9.90694 3.00506 -0.771436 -9.79441 3.49636 -0.247977 
-9.87683 3.90921 0.345609 -10.0937 4.21594 1.04964 -10.3009 4.34475 1.7515 
-23.4803 -13.4042 -5.3416 -22.9382 -13.2958 -5.4144 -22.3126 -13.1382 -5.39846 
-21.5904 -12.8874 -5.22691 -20.8368 -12.4733 -4.94315 -20.0552 -11.8733 -4.61415 
-19.1288 -11.0242 -4.27943 -17.9913 -9.90447 -3.99148 -16.6964 -8.74716 -3.77511 
-24.1079 -12.57 -5.00526 -24.1463 -11.5462 -4.66604 -24.0389 -10.3798 -4.27832 
-23.7869 -9.12526 -3.8882 -23.4578 -7.8875 -3.46206 -23.0864 -6.76412 -2.98322 
-22.6624 -5.74963 -2.50188 -22.2067 -4.80917 -2.01058 -21.751 -3.96478 -1.49977 
-24.0977 -14.8361 -5.51159 -24.0741 -16.4415 -5.68979 -23.913 -18.209 -5.85094 
-23.6516 -19.9417 -6.02204 -23.2923 -21.48 -6.17409 -22.8211 -22.8659 -6.32838 
-22.2648 -24.1151 -6.41557 -21.6917 -25.0416 -6.20455 -21.2069 -25.4933 -5.63858 
-24.5655 -14.2518 -5.35143 -25.1389 -15.0701 -5.38314 -25.6835 -15.8967 -5.30935 
-26.249 -16.6852 -5.11938 -26.8064 -17.3057 -4.83886 -27.305 -17.6689 -4.48317 
-27.8146 -17.8091 -4.05056 -28.3007 -17.7641 -3.54385 -28.5742 -17.531 -2.99075 
-11.8993 -3.70952 3.88965 -13.1607 -4.4396 3.84377 -14.5388 -5.3346 3.72474 
-16.0435 -6.38055 3.41095 -17.5657 -7.55053 2.92911 -18.958 -8.85548 2.36394 
-20.1694 -10.2734 1.72991 -21.191 -11.7054 1.104 -22.0086 -13.0729 0.588858 
-10.7287 -3.60142 3.69408 -10.7479 -4.16333 3.44854 -10.8564 -4.75954 3.15438 
-11.0589 -5.37153 2.78663 -11.3455 -5.97988 2.36572 -11.7329 -6.5586 1.93594 
-12.2176 -7.13552 1.51258 -12.7784 -7.70028 1.06388 -13.4015 -8.16969 0.584532 
-11.457 -3.03829 4.18334 -12.2694 -3.03552 4.44223 -13.3452 -3.06924 4.56112 
-14.7591 -3.15671 4.46033 -16.3118 -3.38267 4.29521 -17.8085 -3.736 4.19181 
-19.2099 -4.10543 4.05591 -20.43 -4.45525 3.80588 -21.4016 -4.81459 3.47725 
-9.59903 -2.86235 3.79344 -8.42235 -2.65535 3.5559 -7.28335 -2.49186 3.21838 
-6.13223 -2.38942 2.87737 -4.93985 -2.35747 2.57213 -3.84146 -2.39286 2.23562 
-2.93253 -2.48991 1.83638 -2.2168 -2.61411 1.36697 -1.75862 -2.70402 0.808428 
-10.0554 -2.45039 4.10109 -9.36481 -1.67287 4.20644 -8.7623 -0.731821 4.20121 
-8.33881 0.35866 4.10724 -8.16629 1.46357 3.96774 -8.28918 2.42611 3.78912 
-8.69237 3.19781 3.55037 -9.27898 3.77142 3.22435 -9.90544 4.1218 2.81132 
-22.137 -14.185 0.135827 -21.5416 -13.9207 0.135679 -20.8548 -13.4805 0.126694 
-20.1014 -12.8332 0.101862 -19.2793 -12.0345 0.115631 -18.3587 -11.1469 0.154973 
-17.3148 -10.2424 0.184366 -16.1844 -9.45449 0.205861 -15.072 -8.89118 0.1934 
-22.7568 -13.714 0.536014 -22.872 -12.9991 0.927817 -22.9696 -12.1601 1.30729 
-23.054 -11.2201 1.66368 -23.1244 -10.2702 2.03696 -23.1194 -9.29132 2.40238 
-23.0144 -8.23535 2.68636 -22.8462 -7.1699 2.88281 -22.5873 -6.15281 3.02691 
-22.8786 -15.6102 -0.232967 -23.0549 -17.0683 -0.667829 -23.0883 -18.681 -1.06768 
-22.9306 -20.3489 -1.4227 -22.6618 -21.9761 -1.81352 -22.3344 -23.4447 -2.30079 
-21.8925 -24.611 -2.86898 -21.4053 -25.3654 -3.51984 -21.0538 -25.6552 -4.24094 
-23.2662 -15.2485 0.0524835 -23.9231 -16.1285 -0.0635059 -24.6153 -16.8556 -0.226416 
-25.3527 -17.3808 -0.437065 -26.1715 -17.738 -0.624431 -27.0124 -17.893 -0.820169 
-27.6849 -17.8434 -1.13386 -28.12 -17.6846 -1.56383 -28.405 -17.459 -2.02027 
-15.0949 -7.97947 -3.39423 -14.7844 -8.08165 -3.15212 -14.4337 -8.15606 -2.90566 
-14.078 -8.22827 -2.58724 -13.7722 -8.36547 -2.20827 -13.6025 -8.54137 -1.80826 
-13.6125 -8.6409 -1.3225 -13.7356 -8.63366 -0.769743 -13.8911 -8.58457 -0.276134 
-16.9932 -9.40639 -3.57184 -18.2885 -11.5287 -3.7641 -19.0959 -13.9536 -4.2682 
-19.4478 -16.1787 -4.83067 -19.5731 -18.1031 -5.15975 -19.8008 -19.9756 -5.27373 
-20.1795 -21.7901 -5.30938 -20.4809 -23.3672 -5.28948 -20.6641 -24.6286 -5.17284 
-13.3409 -6.91861 -3.60948 -11.2566 -6.3324 -3.50612 -9.41141 -5.78959 -3.17228 
-7.76776 -5.20903 -2.69734 -6.17961 -4.78591 -2.26433 -4.74693 -4.44681 -1.87104 
-3.57769 -4.04388 -1.41704 -2.64308 -3.64052 -0.891502 -1.96879 -3.22595 -0.335778 
-15.4174 -9.22692 -0.309016 -16.9509 -10.58 -0.801797 -18.4561 -12.8851 -1.39492 
-19.5058 -15.7002 -2.06504 -19.8705 -18.1981 -2.64086 -19.9314 -20.1915 -3.05555 
-20.127 -21.9762 -3.44921 -20.3928 -23.5537 -3.90515 -20.6055 -24.7461 -4.40814 
-12.6434 -8.08095 0.246324 -11.1302 -7.60266 0.318019 -9.56103 -7.13799 0.379966 
-8.01314 -6.80651 0.461198 -6.53379 -6.46326 0.525787 -5.13814 -5.91071 0.546724 
-3.88299 -5.23111 0.529312 -2.84312 -4.49235 0.463466 -2.07639 -3.64142 0.346541 
-21.5033 -3.1632 -0.65841 -21.736 -3.02506 -0.282758 -21.9825 -2.89336 0.192516 
-22.1685 -2.94165 0.78622 -22.2757 -3.18979 1.36446 -22.3523 -3.50893 1.8524 
-22.4038 -3.87398 2.28282 -22.4019 -4.31378 2.6509 -22.3359 -4.77104 2.92949 
-22.344 -4.31207 -1.15557 -23.4881 -5.37858 -1.39852 -24.6887 -6.39987 -1.76345 
-25.8394 -7.68109 -2.17671 -26.8918 -9.5584 -2.54445 -27.7818 -11.7109 -2.76428 
-28.3535 -13.5067 -2.7765 -28.584 -14.8754 -2.66162 -28.6244 -16.0749 -2.54102 
-20.3902 -2.11558 -0.70133 -19.3809 -0.94821 -0.349598 -18.3064 0.219893 0.0483754 
-17.1651 1.30834 0.462062 -15.9841 2.25757 0.834098 -14.8237 3.06607 1.18047 
-13.6831 3.67148 1.53181 -12.5514 4.00854 1.85221 -11.4696 4.16819 2.12131 
-23.2872 -6.16362 2.71111 -24.4567 -7.22876 2.25417 -25.5256 -8.3615 1.73811 
-26.4459 -9.56925 1.16521 -27.2967 -10.9058 0.575201 -27.9409 -12.3289 -0.0358319 
-28.2319 -13.6593 -0.689371 -28.3483 -14.8656 -1.34147 -28.4788 -16.0428 -1.93121 
-21.2101 -3.90699 3.41221 -20.0742 -2.46406 3.64926 -18.7695 -0.975211 3.78338 
-17.2975 0.423323 3.82201 -15.7798 1.72013 3.83488 -14.391 2.80759 3.79597 
-13.1976 3.46698 3.58236 -12.1666 3.78244 3.19888 -11.2605 4.02578 2.76806 
-21.531 -26.1072 -4.99566 -22.5255 -26.1602 -4.88409 -23.6657 -25.5352 -4.57789 
-24.7543 -24.5016 -4.18715 -25.7844 -23.3617 -3.79464 -26.7227 -22.0886 -3.41277 
-27.5164 -20.7645 -3.09583 -28.1285 -19.5649 -2.86713 -28.477 -18.3925 -2.66259 
-1.43586 -1.73455 0.415298 -1.57917 -0.656987 0.580696 -2.05074 0.378372 0.665547 
-2.83247 1.34207 0.747983 -3.93945 2.27698 0.951597 -5.30195 3.18337 1.28235 
-6.73386 3.9458 1.65196 -8.0972 4.36715 1.97443 -9.34367 4.4113 2.20318 
-12.5572 -1.22863 -3.06147 -12.6455 -1.85152 -3.30704 -13.9362 -2.09155 -3.28149 
-12.8184 -2.5702 -3.55889 -14.1627 -2.84737 -3.49593 -15.4907 -3.19441 -3.46316 
-12.9907 -3.2687 -3.84057 -14.4627 -3.62054 -3.76213 -15.8621 -4.08137 -3.65755 
-17.1892 -4.6428 -3.61957 -13.2994 -4.04488 -3.97951 -14.9156 -4.46072 -4.01733 
-16.4055 -5.06979 -3.8978 -17.7548 -5.76539 -3.81176 -18.9859 -6.44882 -3.83191 
-13.9649 -5.13288 -3.89868 -15.6826 -5.65137 -4.03991 -17.2101 -6.36182 -4.08722 
-18.4852 -7.12603 -4.04943 -19.6435 -7.82863 -4.08195 -20.6636 -8.39998 -4.17343 
-14.909 -6.43119 -3.81422 -16.6218 -7.16432 -3.9197 -18.1205 -8.00061 -4.11048 
-19.2664 -8.76665 -4.27775 -20.2554 -9.39262 -4.40695 -21.1896 -9.87831 -4.53354 
-21.9701 -10.2518 -4.60651 -15.8741 -7.66448 -3.81331 -17.4222 -8.63893 -3.91439 
-18.7894 -9.6365 -4.13267 -19.832 -10.4378 -4.4341 -20.6799 -11.0137 -4.71842 
-21.5053 -11.4087 -4.93267 -22.2559 -11.6913 -5.03337 -22.8697 -11.9149 -5.02486 
-10.1852 -0.25057 -2.7998 -8.81942 -0.0393938 -2.74841 -10.0177 -0.745933 -3.07077 
-7.32147 -0.00138259 -2.63353 -8.5486 -0.64356 -2.96644 -9.98503 -1.45473 -3.26792 
-5.79194 -0.159755 -2.45123 -6.98147 -0.770858 -2.77762 -8.45789 -1.46907 -3.086 
-10.0326 -2.28436 -3.42131 -4.33421 -0.563446 -2.18575 -5.428 -1.0876 -2.52729 
-6.87195 -1.68012 -2.84296 -8.53064 -2.37016 -3.17817 -10.1152 -3.10564 -3.53309 
-3.1201 -1.20542 -1.81198 -4.07337 -1.61886 -2.20359 -5.39184 -2.09846 -2.5702 
-7.0531 -2.65811 -2.91897 -8.7489 -3.31437 -3.27022 -10.4076 -4.0237 -3.59023 
-2.34106 -1.91743 -1.35511 -3.16785 -2.30846 -1.81297 -4.30871 -2.74305 -2.24531 
-5.83176 -3.2057 -2.63863 -7.55686 -3.73464 -2.99458 -9.24829 -4.36644 -3.35929 
-11.1109 -5.06625 -3.65173 -1.99732 -2.593 -0.852099 -2.7486 -3.00215 -1.37436 
-3.76171 -3.43987 -1.8591 -5.08628 -3.87773 -2.29094 -6.69746 -4.28944 -2.66737 
-8.37147 -4.81454 -3.06626 -10.1213 -5.42039 -3.46037 -12.1695 -6.0671 -3.6919 
-2.58093 -4.14033 -0.221086 -3.49405 -4.9925 -0.144229 -3.42209 -4.54332 -0.822375 
-4.67377 -5.76659 -0.13489 -4.47388 -5.38277 -0.787242 -4.52159 -4.90668 -1.35961 
-6.04316 -6.449 -0.156933 -5.76124 -6.1508 -0.813461 -5.7017 -5.66055 -1.31798 
-5.86079 -5.20034 -1.79566 -7.51739 -6.92373 -0.147247 -7.21908 -6.81924 -0.844868 
-7.09533 -6.42504 -1.37297 -7.17499 -5.93885 -1.80882 -7.42814 -5.55657 -2.27666 
[...]
POINT_DATA 1002
FIELD FieldData 4
_paraPhi 1 1002 double
6.2831853072 3.1415926536 6.2831853072 3.1415926536 4.7123889804 4.7123889804 1.5707963268 1.5707963268 3.6951670125 
5.7296109483 2.5880182947 0.5535743589 6.2831853072 6.2831853072 6.2831853072 6.2831853072 3.1415926536 3.1415926536 
3.1415926536 3.1415926536 3.1415926536 6.1053039672 5.898798347 5.6768734901 5.4599499503 5.2659633393 5.1032165617 
4.9713148346 4.8656852733 4.7809517865 0.17788134 0.38438696014 0.60631181711 0.82323535693 1.0172219679 1.1799687454 
1.3118704726 1.4175000338 1.5022335207 6.1892828907 6.1070320098 6.035312792 5.9728339911 5.9183214791 5.8706119594 
5.8286879411 5.7916808611 5.7588591896 0.093902416448 0.17615329733 0.2478725152 0.31035131605 0.36486382811 0.41257334776 
0.45449736604 0.4915044461 0.52432611754 3.3194739936 3.5259796137 3.7479044707 3.9648280105 4.1588146215 4.321561399 
4.4534631262 4.5590926874 4.6438261743 2.9637113136 2.7572056934 2.5352808365 2.3183572967 2.1243706857 1.9616239082 
1.829722181 1.7240926197 1.6393591329 3.23549507 3.3177459509 3.3894651688 3.4519439696 3.5064564817 3.5541660013 
3.5960900196 3.6330970997 3.6659187711 3.0476902371 2.9654393563 2.8937201384 2.8312413375 2.7767288255 2.7290193058 
2.6870952876 2.6500882075 2.617266536 6.2831853072 6.2831853072 6.2831853072 6.2831853072 3.1415926536 3.1415926536 
3.1415926536 3.1415926536 3.1415926536 6.1053039672 5.898798347 5.6768734901 5.4599499503 5.2659633393 5.1032165617 
4.9713148346 4.8656852733 4.7809517865 0.17788134 0.38438696014 0.60631181711 0.82323535693 1.0172219679 1.1799687454 
1.3118704726 1.4175000338 1.5022335207 6.1892828907 6.1070320098 6.035312792 5.9728339911 5.9183214791 5.8706119594 
5.8286879411 5.7916808611 5.7588591896 0.093902416448 0.17615329733 0.2478725152 0.31035131605 0.36486382811 0.41257334776 
0.45449736604 0.4915044461 0.52432611754 3.3194739936 3.5259796137 3.7479044707 3.9648280105 4.1588146215 4.321561399 
4.4534631262 4.5590926874 4.6438261743 2.9637113136 2.7572056934 2.5352808365 2.3183572967 2.1243706857 1.9616239082 
1.829722181 1.7240926197 1.6393591329 3.23549507 3.3177459509 3.3894651688 3.4519439696 3.5064564817 3.5541660013 
3.5960900196 3.6330970997 3.6659187711 3.0476902371 2.9654393563 2.8937201384 2.8312413375 2.7767288255 2.7290193058 
2.6870952876 2.6500882075 2.617266536 4.7123889804 4.7123889804 4.7123889804 4.7123889804 4.7123889804 4.7123889804 
4.7123889804 4.7123889804 4.7123889804 4.6087898617 4.4991390697 4.3857031936 4.2712800401 4.1588146215 4.0509635631 
3.94975894 3.8564636551 3.7716124825 4.8159880991 4.9256388911 5.0390747672 5.1534979207 5.2659633393 5.3738143976 
5.4750190208 5.5683143056 5.6531654782 4.6087898617 4.4991390697 4.3857031936 4.2712800401 4.1588146215 4.0509635631 
3.94975894 3.8564636551 3.7716124825 4.8159880991 4.9256388911 5.0390747672 5.1534979207 5.2659633393 5.3738143976 
5.4750190208 5.5683143056 5.6531654782 1.5707963268 1.5707963268 1.5707963268 1.5707963268 1.5707963268 1.5707963268 
1.5707963268 1.5707963268 1.5707963268 1.6743954455 1.7840462375 1.8974821136 2.0119052671 2.1243706857 2.232221744 
2.3334263672 2.426721652 2.5115728246 1.4671972081 1.3575464161 1.24411054 1.1296873865 1.0172219679 0.90937090954 
0.80816628637 0.71487100155 0.63001982895 1.6743954455 1.7840462375 1.8974821136 2.0119052671 2.1243706857 2.232221744 
2.3334263672 2.426721652 2.5115728246 1.4671972081 1.3575464161 1.24411054 1.1296873865 1.0172219679 0.90937090954 
0.80816628637 0.71487100155 0.63001982895 3.6007720849 3.4966939854 3.3839471039 3.2645756454 3.1415926536 3.0186096618 
2.8992382033 2.7864913217 2.6824132222 5.8240058758 5.9280839753 6.0408308569 6.1602023154 6.2831853072 0.12298299178 
0.2423544503 0.35510133185 0.45917943135 6.0560271438 5.7885595667 5.9702140275 5.5125918794 5.6029703303 5.7885595667 
5.2659633393 5.2659633393 5.2659633393 5.2659633393 5.0674903122 5.0120975802 4.9155579264 4.7123889804 4.1588146215 
4.9155579264 4.8353719722 4.7123889804 4.5092200343 4.1588146215 3.6362183941 4.8004512023 4.7123889804 4.5894059886 
4.4126803806 4.1588146215 3.8218076305 3.4545639333 4.7123889804 4.6243267584 4.5092200343 4.3572876485 4.1588146215 
3.9121860814 3.6362183941 3.368750817 6.0174235957 5.9434319871 5.8263323547 5.8809213739 5.7674481418 5.6279784266 
5.8278025282 5.718968232 5.5891129425 5.4372443565 5.7823484065 5.678536687 5.5575666702 5.4192596322 5.2659633393 
5.743164462 5.6444075337 5.5314983644 5.4046708639 5.2659633393 5.1195510325 5.7091357773 5.6152775188 5.5096229709 
5.3926039573 5.2659633393 5.1329233157 4.9978930058 5.6793730533 5.5901633916 5.4910209005 5.3824597928 5.2659633393 
5.1440684722 5.0201624502 4.8979782167 5.5683143056 5.4750190208 5.4750190208 5.3738143976 5.3738143976 5.3738143976 
5.2659633393 5.2659633393 5.2659633393 5.2659633393 5.1534979207 5.1534979207 5.1534979207 5.1534979207 5.1534979207 
5.0390747672 5.0390747672 5.0390747672 5.0390747672 5.0390747672 5.0390747672 4.9256388911 4.9256388911 4.9256388911 
4.9256388911 4.9256388911 4.9256388911 4.9256388911 4.8159880991 4.8159880991 4.8159880991 4.8159880991 4.8159880991 
4.8159880991 4.8159880991 4.8159880991 4.6087898617 4.6087898617 4.4991390697 4.6087898617 4.4991390697 4.3857031936 
4.6087898617 4.4991390697 4.3857031936 4.2712800401 4.6087898617 4.4991390697 4.3857031936 4.2712800401 4.1588146215 
4.6087898617 4.4991390697 4.3857031936 4.2712800401 4.1588146215 4.0509635631 4.6087898617 4.4991390697 4.3857031936 
4.2712800401 4.1588146215 4.0509635631 3.94975894 4.6087898617 4.4991390697 4.3857031936 4.2712800401 4.1588146215 
4.0509635631 3.94975894 3.8564636551 4.526799744 4.4046155105 4.426884955 4.2807094886 4.2918546451 4.3052269283 
4.1588146215 4.1588146215 4.1588146215 4.1588146215 4.042318168 4.0321740035 4.0201070968 4.0055183285 3.9875336042 
3.9337570603 3.9151549899 3.8932795963 3.8672112905 3.8356650183 3.7967995342 3.8346145692 3.809500442 3.7803704271 
3.7462412737 3.7058097288 3.657329819 3.5984456061 3.7454049075 3.7156421835 3.6816134988 3.6424295543 3.5969754326 
3.5438565869 3.4813459737 3.4073543651 3.5642842451 3.4524645613 3.5233842518 3.3320300872 3.403123212 3.4773852225 
3.20576226 3.2746326772 3.348015857 3.4255060145 3.0774230472 3.1415926536 3.2112816139 3.2864685043 3.3668817272 
2.95115522 3.00855263 3.0719036933 3.1415926536 3.2178377658 3.3005964304 2.8307207459 2.8800620952 2.9351694502 
2.9967168029 3.0653475414 3.1415926536 3.225752376 2.718901062 2.7598010554 2.8058000847 2.8576792927 2.91630358 
2.9825888767 3.0574329311 3.1415926536 3.5642842451 3.5233842518 3.4524645613 3.4773852225 3.403123212 3.3320300872 
3.4255060145 3.348015857 3.2746326772 3.20576226 3.3668817272 3.2864685043 3.2112816139 3.1415926536 3.0774230472 
3.3005964304 3.2178377658 3.1415926536 3.0719036933 3.00855263 2.95115522 3.225752376 3.1415926536 3.0653475414 
2.9967168029 2.9351694502 2.8800620952 2.8307207459 3.1415926536 3.0574329311 2.9825888767 2.91630358 2.8576792927 
2.8058000847 2.7598010554 2.718901062 4.526799744 4.426884955 4.4046155105 4.3052269283 4.2918546451 4.2807094886 
4.1588146215 4.1588146215 4.1588146215 4.1588146215 3.9875336042 4.0055183285 4.0201070968 4.0321740035 4.042318168 
3.7967995342 3.8356650183 3.8672112905 3.8932795963 3.9151549899 3.9337570603 3.5984456061 3.657329819 3.7058097288 
3.7462412737 3.7803704271 3.809500442 3.8346145692 3.4073543651 3.4813459737 3.5438565869 3.5969754326 3.6424295543 
3.6816134988 3.7156421835 3.7454049075 4.7123889804 4.8004512023 4.6243267584 4.9155579264 4.7123889804 4.5092200343 
5.0674903122 4.8353719722 4.5894059886 4.3572876485 5.2659633393 5.0120975802 4.7123889804 4.4126803806 4.1588146215 
5.5125918794 5.2659633393 4.9155579264 4.5092200343 4.1588146215 3.9121860814 5.7885595667 5.6029703303 5.2659633393 
4.7123889804 4.1588146215 3.8218076305 3.6362183941 6.0560271438 5.9702140275 5.7885595667 5.2659633393 4.1588146215 
3.6362183941 3.4545639333 3.368750817 0.22715816343 0.49462574053 0.3129712797 0.77059342779 0.68021497688 0.49462574053 
1.0172219679 1.0172219679 1.0172219679 1.0172219679 1.2156949949 1.271087727 1.3676273807 1.5707963268 2.1243706857 
1.3676273807 1.447813335 1.5707963268 1.7739652728 2.1243706857 2.6469669131 1.4827341049 1.5707963268 1.6937793186 
1.8705049266 2.1243706857 2.4613776767 2.8286213739 1.5707963268 1.6588585487 1.7739652728 1.9258976586 2.1243706857 
2.3709992258 2.6469669131 2.9144344902 1.7563855631 1.8785697967 1.8563003522 2.0024758186 1.9913306621 1.9779583789 
2.1243706857 2.1243706857 2.1243706857 2.1243706857 2.2408671392 2.2510113037 2.2630782103 2.2776669786 2.295651703 
2.3494282469 2.3680303173 2.3899057108 2.4159740166 2.4475202889 2.486385773 2.448570738 2.4736848652 2.5028148801 
2.5369440334 2.5773755784 2.6258554882 2.6847397011 2.5377803997 2.5675431237 2.6015718084 2.6407557529 2.6862098746 
2.7393287203 2.8018393335 2.8758309421 1.6743954455 1.6743954455 1.7840462375 1.6743954455 1.7840462375 1.8974821136 
1.6743954455 1.7840462375 1.8974821136 2.0119052671 1.6743954455 1.7840462375 1.8974821136 2.0119052671 2.1243706857 
1.6743954455 1.7840462375 1.8974821136 2.0119052671 2.1243706857 2.232221744 1.6743954455 1.7840462375 1.8974821136 
2.0119052671 2.1243706857 2.232221744 2.3334263672 1.6743954455 1.7840462375 1.8974821136 2.0119052671 2.1243706857 
2.232221744 2.3334263672 2.426721652 1.4671972081 1.3575464161 1.4671972081 1.24411054 1.3575464161 1.4671972081 
1.1296873865 1.24411054 1.3575464161 1.4671972081 1.0172219679 1.1296873865 1.24411054 1.3575464161 1.4671972081 
0.90937090954 1.0172219679 1.1296873865 1.24411054 1.3575464161 1.4671972081 0.80816628637 0.90937090954 1.0172219679 
1.1296873865 1.24411054 1.3575464161 1.4671972081 0.71487100155 0.80816628637 0.90937090954 1.0172219679 1.1296873865 
1.24411054 1.3575464161 1.4671972081 0.60381225391 0.57404952988 0.69302191562 0.54002084522 0.66790778838 0.79216440667 
0.50083690068 0.63877777351 0.77356233629 0.90072551443 0.45538277901 0.60464862014 0.75168694275 0.89058134991 1.0172219679 
0.40226393329 0.56421707518 0.72561863695 0.87851444325 1.0172219679 1.139116835 0.33975332011 0.51573716537 0.69407236469 
0.86392567495 1.0172219679 1.1502619915 1.2630228569 0.26576171152 0.45685295248 0.6552068806 0.84594095064 1.0172219679 
1.1636342747 1.2852923014 1.3852070904 0.22715816343 0.3129712797 0.49462574053 0.49462574053 0.68021497688 0.77059342779 
1.0172219679 1.0172219679 1.0172219679 1.0172219679 2.1243706857 1.5707963268 1.3676273807 1.271087727 1.2156949949 
2.6469669131 2.1243706857 1.7739652728 1.5707963268 1.447813335 1.3676273807 2.8286213739 2.4613776767 2.1243706857 
1.8705049266 1.6937793186 1.5707963268 1.4827341049 2.9144344902 2.6469669131 2.3709992258 2.1243706857 1.9258976586 
1.7739652728 1.6588585487 1.5707963268 1.7563855631 1.8563003522 1.8785697967 1.9779583789 1.9913306621 2.0024758186 
2.1243706857 2.1243706857 2.1243706857 2.1243706857 2.295651703 2.2776669786 2.2630782103 2.2510113037 2.2408671392 
2.486385773 2.4475202889 2.4159740166 2.3899057108 2.3680303173 2.3494282469 2.6847397011 2.6258554882 2.5773755784 
2.5369440334 2.5028148801 2.4736848652 2.448570738 2.8758309421 2.8018393335 2.7393287203 2.6862098746 2.6407557529 
2.6015718084 2.5675431237 2.5377803997 5.8604937156 5.901393709 5.9723133995 5.9473927383 6.0216547488 6.0927478736 
5.9992719463 6.0767621038 6.1501452836 6.2190157008 6.0578962336 6.1383094565 6.2134963469 0 0.064169606361 
6.1241815303 6.206940195 6.2831853072 0.069688960264 0.13304002361 0.19043743361 6.1990255847 0 0.07624511221 
0.14487585072 0.20642320337 0.26153055843 0.3108719077 0 0.084159722458 0.15900377685 0.22528907359 0.28391336087 
0.3357925689 0.38179159818 0.42269159155 5.8604937156 5.9723133995 5.901393709 6.0927478736 6.0216547488 5.9473927383 
6.2190157008 6.1501452836 6.0767621038 5.9992719463 0.064169606361 0 6.2134963469 6.1383094565 6.0578962336 
0.19043743361 0.13304002361 0.069688960264 6.2831853072 6.206940195 6.1241815303 0.3108719077 0.26153055843 0.20642320337 
0.14487585072 0.07624511221 6.2831853072 6.1990255847 0.42269159155 0.38179159818 0.3357925689 0.28391336087 0.22528907359 
0.15900377685 0.084159722458 0 5.6793730533 5.7091357773 5.5901633916 5.743164462 5.6152775188 5.4910209005 
5.7823484065 5.6444075337 5.5096229709 5.3824597928 5.8278025282 5.678536687 5.5314983644 5.3926039573 5.2659633393 
5.8809213739 5.718968232 5.5575666702 5.4046708639 5.2659633393 5.1440684722 5.9434319871 5.7674481418 5.5891129425 
5.4192596322 5.2659633393 5.1329233157 5.0201624502 6.0174235957 5.8263323547 5.6279784266 5.4372443565 5.2659633393 
5.1195510325 4.9978930058 4.8979782167 1.3852070904 1.2852923014 1.2630228569 1.1636342747 1.1502619915 1.139116835 
1.0172219679 1.0172219679 1.0172219679 1.0172219679 0.84594095064 0.86392567495 0.87851444325 0.89058134991 0.90072551443 
0.6552068806 0.69407236469 0.72561863695 0.75168694275 0.77356233629 0.79216440667 0.45685295248 0.51573716537 0.56421707518 
0.60464862014 0.63877777351 0.66790778838 0.69302191562 0.26576171152 0.33975332011 0.40226393329 0.45538277901 0.50083690068 
0.54002084522 0.57404952988 0.60381225391 
_paraPhiHalf 1 1002 double
0 3.1415926536 0 3.1415926536 1.5707963268 1.5707963268 1.5707963268 1.5707963268 2.5880182947 
0.5535743589 2.5880182947 0.5535743589 0 0 0 0 3.1415926536 3.1415926536 
3.1415926536 3.1415926536 3.1415926536 0.17788134 0.38438696014 0.60631181711 0.82323535693 1.0172219679 1.1799687454 
1.3118704726 1.4175000338 1.5022335207 0.17788134 0.38438696014 0.60631181711 0.82323535693 1.0172219679 1.1799687454 
1.3118704726 1.4175000338 1.5022335207 0.093902416448 0.17615329733 0.2478725152 0.31035131605 0.36486382811 0.41257334776 
0.45449736604 0.4915044461 0.52432611754 0.093902416448 0.17615329733 0.2478725152 0.31035131605 0.36486382811 0.41257334776 
0.45449736604 0.4915044461 0.52432611754 2.9637113136 2.7572056934 2.5352808365 2.3183572967 2.1243706857 1.9616239082 
1.829722181 1.7240926197 1.6393591329 2.9637113136 2.7572056934 2.5352808365 2.3183572967 2.1243706857 1.9616239082 
1.829722181 1.7240926197 1.6393591329 3.0476902371 2.9654393563 2.8937201384 2.8312413375 2.7767288255 2.7290193058 
2.6870952876 2.6500882075 2.617266536 3.0476902371 2.9654393563 2.8937201384 2.8312413375 2.7767288255 2.7290193058 
2.6870952876 2.6500882075 2.617266536 0 0 0 0 3.1415926536 3.1415926536 
3.1415926536 3.1415926536 3.1415926536 0.17788134 0.38438696014 0.60631181711 0.82323535693 1.0172219679 1.1799687454 
1.3118704726 1.4175000338 1.5022335207 0.17788134 0.38438696014 0.60631181711 0.82323535693 1.0172219679 1.1799687454 
1.3118704726 1.4175000338 1.5022335207 0.093902416448 0.17615329733 0.2478725152 0.31035131605 0.36486382811 0.41257334776 
0.45449736604 0.4915044461 0.52432611754 0.093902416448 0.17615329733 0.2478725152 0.31035131605 0.36486382811 0.41257334776 
0.45449736604 0.4915044461 0.52432611754 2.9637113136 2.7572056934 2.5352808365 2.3183572967 2.1243706857 1.9616239082 
1.829722181 1.7240926197 1.6393591329 2.9637113136 2.7572056934 2.5352808365 2.3183572967 2.1243706857 1.9616239082 
1.829722181 1.7240926197 1.6393591329 3.0476902371 2.9654393563 2.8937201384 2.8312413375 2.7767288255 2.7290193058 
2.6870952876 2.6500882075 2.617266536 3.0476902371 2.9654393563 2.8937201384 2.8312413375 2.7767288255 2.7290193058 
2.6870952876 2.6500882075 2.617266536 1.5707963268 1.5707963268 1.5707963268 1.5707963268 1.5707963268 1.5707963268 
1.5707963268 1.5707963268 1.5707963268 1.6743954455 1.7840462375 1.8974821136 2.0119052671 2.1243706857 2.232221744 
2.3334263672 2.426721652 2.5115728246 1.4671972081 1.3575464161 1.24411054 1.1296873865 1.0172219679 0.90937090954 
0.80816628637 0.71487100155 0.63001982895 1.6743954455 1.7840462375 1.8974821136 2.0119052671 2.1243706857 2.232221744 
2.3334263672 2.426721652 2.5115728246 1.4671972081 1.3575464161 1.24411054 1.1296873865 1.0172219679 0.90937090954 
0.80816628637 0.71487100155 0.63001982895 1.5707963268 1.5707963268 1.5707963268 1.5707963268 1.5707963268 1.5707963268 
1.5707963268 1.5707963268 1.5707963268 1.6743954455 1.7840462375 1.8974821136 2.0119052671 2.1243706857 2.232221744 
2.3334263672 2.426721652 2.5115728246 1.4671972081 1.3575464161 1.24411054 1.1296873865 1.0172219679 0.90937090954 
0.80816628637 0.71487100155 0.63001982895 1.6743954455 1.7840462375 1.8974821136 2.0119052671 2.1243706857 2.232221744 
2.3334263672 2.426721652 2.5115728246 1.4671972081 1.3575464161 1.24411054 1.1296873865 1.0172219679 0.90937090954 
0.80816628637 0.71487100155 0.63001982895 2.6824132222 2.7864913217 2.8992382033 3.0186096618 3.1415926536 3.0186096618 
2.8992382033 2.7864913217 2.6824132222 0.45917943135 0.35510133185 0.2423544503 0.12298299178 0 0.12298299178 
0.2423544503 0.35510133185 0.45917943135 0.22715816343 0.49462574053 0.3129712797 0.77059342779 0.68021497688 0.49462574053 
1.0172219679 1.0172219679 1.0172219679 1.0172219679 1.2156949949 1.271087727 1.3676273807 1.5707963268 2.1243706857 
1.3676273807 1.447813335 1.5707963268 1.7739652728 2.1243706857 2.6469669131 1.4827341049 1.5707963268 1.6937793186 
1.8705049266 2.1243706857 2.4613776767 2.8286213739 1.5707963268 1.6588585487 1.7739652728 1.9258976586 2.1243706857 
2.3709992258 2.6469669131 2.9144344902 0.26576171152 0.33975332011 0.45685295248 0.40226393329 0.51573716537 0.6552068806 
0.45538277901 0.56421707518 0.69407236469 0.84594095064 0.50083690068 0.60464862014 0.72561863695 0.86392567495 1.0172219679 
0.54002084522 0.63877777351 0.75168694275 0.87851444325 1.0172219679 1.1636342747 0.57404952988 0.66790778838 0.77356233629 
0.89058134991 1.0172219679 1.1502619915 1.2852923014 0.60381225391 0.69302191562 0.79216440667 0.90072551443 1.0172219679 
1.139116835 1.2630228569 1.3852070904 0.71487100155 0.80816628637 0.80816628637 0.90937090954 0.90937090954 0.90937090954 
1.0172219679 1.0172219679 1.0172219679 1.0172219679 1.1296873865 1.1296873865 1.1296873865 1.1296873865 1.1296873865 
1.24411054 1.24411054 1.24411054 1.24411054 1.24411054 1.24411054 1.3575464161 1.3575464161 1.3575464161 
1.3575464161 1.3575464161 1.3575464161 1.3575464161 1.4671972081 1.4671972081 1.4671972081 1.4671972081 1.4671972081 
1.4671972081 1.4671972081 1.4671972081 1.6743954455 1.6743954455 1.7840462375 1.6743954455 1.7840462375 1.8974821136 
1.6743954455 1.7840462375 1.8974821136 2.0119052671 1.6743954455 1.7840462375 1.8974821136 2.0119052671 2.1243706857 
1.6743954455 1.7840462375 1.8974821136 2.0119052671 2.1243706857 2.232221744 1.6743954455 1.7840462375 1.8974821136 
2.0119052671 2.1243706857 2.232221744 2.3334263672 1.6743954455 1.7840462375 1.8974821136 2.0119052671 2.1243706857 
2.232221744 2.3334263672 2.426721652 1.7563855631 1.8785697967 1.8563003522 2.0024758186 1.9913306621 1.9779583789 
2.1243706857 2.1243706857 2.1243706857 2.1243706857 2.2408671392 2.2510113037 2.2630782103 2.2776669786 2.295651703 
2.3494282469 2.3680303173 2.3899057108 2.4159740166 2.4475202889 2.486385773 2.448570738 2.4736848652 2.5028148801 
2.5369440334 2.5773755784 2.6258554882 2.6847397011 2.5377803997 2.5675431237 2.6015718084 2.6407557529 2.6862098746 
2.7393287203 2.8018393335 2.8758309421 2.718901062 2.8307207459 2.7598010554 2.95115522 2.8800620952 2.8058000847 
3.0774230472 3.00855263 2.9351694502 2.8576792927 3.0774230472 3.1415926536 3.0719036933 2.9967168029 2.91630358 
2.95115522 3.00855263 3.0719036933 3.1415926536 3.0653475414 2.9825888767 2.8307207459 2.8800620952 2.9351694502 
2.9967168029 3.0653475414 3.1415926536 3.0574329311 2.718901062 2.7598010554 2.8058000847 2.8576792927 2.91630358 
2.9825888767 3.0574329311 3.1415926536 2.718901062 2.7598010554 2.8307207459 2.8058000847 2.8800620952 2.95115522 
2.8576792927 2.9351694502 3.00855263 3.0774230472 2.91630358 2.9967168029 3.0719036933 3.1415926536 3.0774230472 
2.9825888767 3.0653475414 3.1415926536 3.0719036933 3.00855263 2.95115522 3.0574329311 3.1415926536 3.0653475414 