# vtk DataFile Version 5.1
vtk output
ASCII
DATASET POLYDATA
POINTS 1002 float
-11.8487 -0.727022 -2.6996 -23.471 -12.9127 -5.20353 -11.399 -3.66007 3.69041 
-22.0363 -13.9838 0.350557 -15.2521 -7.73076 -3.06963 -14.192 -8.7653 0.270799 
-21.4281 -3.41535 -0.957001 -21.8692 -4.75569 3.24025 -19.1154 -24.1919 -4.37984 
-2.70683 -3.50903 -0.406825 -27.6867 -16.0857 -2.59242 -11.3978 3.21386 2.05633 
-12.8257 -1.28235 -2.80057 -13.9727 -1.98967 -2.86591 -15.2908 -2.882 -2.94703 
-16.7783 -4.07234 -3.04689 -18.4249 -5.63125 -3.15954 -20.0708 -7.33236 -3.43865 
-21.4267 -8.91192 -3.94253 -22.3654 -10.3671 -4.46688 -22.9983 -11.7209 -4.87684 
-11.6149 -1.16787 -2.88648 -11.469 -1.76909 -3.04008 -11.4096 -2.42847 -3.22358 
-11.3455 -3.01021 -3.44824 -11.3646 -3.67749 -3.62202 -11.7699 -4.63156 -3.68463 
-12.6075 -5.63457 -3.64314 -13.5806 -6.41054 -3.49539 -14.4668 -7.04989 -3.27662 
-12.6891 -0.696916 -2.5183 -13.6044 -0.728081 -2.27633 -14.6298 -0.804496 -2.06657 
-15.746 -0.952304 -1.91936 -16.8623 -1.21001 -1.74464 -17.9207 -1.59867 -1.53138 
-18.9158 -2.09423 -1.36238 -19.8401 -2.59476 -1.22798 -20.6804 -3.02589 -1.08584 
-10.7214 -0.496333 -2.68589 -9.46659 -0.333321 -2.66008 -8.12629 -0.268095 -2.65248 
-6.71881 -0.366649 -2.60443 -5.30365 -0.683154 -2.46503 -4.09169 -1.19321 -2.25618 
-3.25691 -1.79862 -1.94307 -2.77981 -2.40337 -1.47951 -2.60408 -2.97539 -0.931319 
-11.4624 -0.18554 -2.45468 -11.0899 0.39871 -2.15407 -10.7744 1.00413 -1.82788 
-10.5941 1.58057 -1.44809 -10.5236 2.13079 -0.979744 -10.5391 2.61592 -0.450381 
-10.7012 2.96386 0.148443 -10.9579 3.18593 0.830008 -11.1932 3.28113 1.49799 
-22.928 -12.9421 -5.23772 -22.275 -12.92 -5.24255 -21.5989 -12.8433 -5.12954 
-20.9732 -12.6606 -4.8715 -20.2964 -12.2811 -4.5641 -19.5222 -11.6137 -4.19615 
-18.761 -10.6326 -3.69806 -17.8841 -9.47736 -3.24351 -16.6694 -8.43312 -3.04776 
-23.6661 -12.0856 -4.96032 -23.8051 -11.0987 -4.65288 -23.8629 -10.022 -4.26453 
-23.7687 -8.91348 -3.82341 -23.4976 -7.78815 -3.35464 -23.1115 -6.72511 -2.83722 
-22.674 -5.80455 -2.28898 -22.2258 -4.9693 -1.78032 -21.8051 -4.1592 -1.34146 
-23.5456 -14.0768 -5.52099 -23.4876 -15.3412 -5.77512 -23.2583 -16.8234 -5.86816 
-22.8815 -18.5159 -5.78443 -22.3804 -20.2189 -5.64792 -21.7361 -21.7508 -5.60143 
-20.971 -22.9802 -5.60675 -20.1902 -23.7777 -5.45319 -19.5354 -24.1427 -5.01432 
-24.0474 -13.5651 -5.36195 -24.647 -14.2378 -5.4644 -25.2279 -14.9405 -5.41615 
-25.7675 -15.6271 -5.20883 -26.3059 -16.1675 -4.94752 -26.8219 -16.4895 -4.65037 
-27.2198 -16.6375 -4.21613 -27.4903 -16.6255 -3.65248 -27.6559 -16.4278 -3.0865 
-12.426 -4.21233 3.73865 -13.564 -4.92529 3.79324 -14.7813 -5.7639 3.76699 
-16.1016 -6.66779 3.52096 -17.51 -7.67939 3.06124 -18.8416 -8.85866 2.48154 
-19.9354 -10.1782 1.86504 -20.7924 -11.5414 1.30076 -21.481 -12.8307 0.807028 
-11.3701 -4.12324 3.44866 -11.3382 -4.69659 3.21837 -11.3923 -5.30816 2.94804 
-11.5439 -5.85562 2.58233 -11.7553 -6.4113 2.19035 -12.0704 -7.04791 1.84425 
-12.5148 -7.64271 1.4819 -13.0266 -8.10448 1.06769 -13.5787 -8.46468 0.655871 
-12.0086 -3.56835 3.98955 -12.762 -3.49801 4.26074 -13.8595 -3.43515 4.3643 
-15.2563 -3.46409 4.32091 -16.7117 -3.65132 4.31998 -18.1163 -3.90117 4.35229 
-19.3789 -4.10437 4.22089 -20.3749 -4.28797 3.91661 -21.1604 -4.50766 3.57051 
-10.3725 -3.45968 3.4719 -9.23752 -3.28824 3.18269 -8.12617 -3.10916 2.78914 
-7.10788 -2.95526 2.33309 -6.03641 -2.91324 1.90306 -4.91792 -2.99335 1.54703 
-4.01625 -3.1228 1.20967 -3.39337 -3.26836 0.777247 -2.94895 -3.41498 0.212733 
-10.798 -3.04606 3.79333 -10.2023 -2.25241 3.83002 -9.68123 -1.24494 3.79689 
-9.34138 -0.183074 3.72397 -9.28879 0.739118 3.58292 -9.52262 1.5051 3.35533 
-9.93875 2.16111 3.0956 -10.4373 2.68807 2.80877 -10.9433 3.04585 2.45705 
-21.571 -13.8685 0.298036 -21.0844 -13.5968 0.193303 -20.5011 -13.1873 0.113924 
-19.8238 -12.6548 0.113093 -19.1019 -11.9721 0.145872 -18.2841 -11.1356 0.197099 
-17.3229 -10.2639 0.295154 -16.2749 -9.53979 0.38218 -15.2108 -9.05197 0.376801 
-22.2323 -13.2866 0.622518 -22.452 -12.4438 0.876508 -22.6237 -11.5061 1.1846 
-22.7413 -10.5674 1.58182 -22.8299 -9.62202 2.00127 -22.8363 -8.6067 2.37085 
-22.7213 -7.57031 2.67739 -22.5156 -6.58874 2.91971 -22.2309 -5.65596 3.10214 
-22.2281 -15.1216 -0.140563 -22.3696 -16.4516 -0.65474 -22.3642 -17.9945 -1.06634 
-22.1098 -19.6634 -1.35945 -21.6421 -21.2747 -1.64621 -21.0679 -22.6454 -1.94694 
-20.416 -23.6493 -2.30456 -19.7675 -24.2233 -2.88569 -19.3033 -24.3775 -3.66087 
-22.6649 -14.6646 0.0781024 -23.338 -15.3153 -0.178305 -24.0207 -15.9 -0.40957 
-24.7253 -16.3309 -0.683245 -25.457 -16.5827 -0.985537 -26.1264 -16.7198 -1.24988 
-26.6805 -16.7526 -1.54004 -27.1485 -16.6442 -1.90259 -27.5015 -16.408 -2.2655 
-14.8752 -7.86689 -2.97556 -14.621 -7.98184 -2.77925 -14.4776 -8.08356 -2.46882 
-14.2905 -8.24655 -2.15147 -14.0081 -8.49876 -1.88019 -13.7789 -8.72479 -1.52862 
-13.723 -8.81966 -1.03481 -13.8183 -8.82259 -0.518741 -13.9921 -8.80115 -0.0831701 
-16.8766 -9.15977 -2.96248 -18.2244 -11.3198 -3.23416 -18.8672 -13.6424 -3.83076 
-18.8865 -15.5813 -4.36807 -18.8925 -17.3511 -4.62745 -19.0938 -19.224 -4.72591 
-19.1331 -20.933 -4.76566 -18.9515 -22.3077 -4.74671 -18.8793 -23.4103 -4.6346 
-13.3227 -7.07434 -3.28249 -11.5284 -6.78905 -3.33342 -9.95773 -6.37575 -3.08107 
-8.35946 -5.83818 -2.76347 -6.75636 -5.5487 -2.54503 -5.4116 -5.31123 -2.27489 
-4.31022 -4.86464 -1.88222 -3.42169 -4.4185 -1.42745 -2.88351 -4.02241 -0.924993 
-15.5804 -9.36592 -0.102478 -17.108 -10.6739 -0.66594 -18.3509 -12.9183 -1.33231 
-18.9593 -15.5504 -1.90372 -19.0715 -17.8245 -2.29221 -19.0112 -19.6962 -2.6096 
-18.8637 -21.3449 -2.97166 -18.704 -22.6663 -3.40171 -18.7455 -23.5991 -3.88801 
-12.8106 -8.42842 0.295363 -11.4471 -8.05874 0.23913 -10.0505 -7.6367 0.188809 
-8.5796 -7.3003 0.16385 -7.17167 -6.97816 0.123978 -5.93943 -6.50189 0.0582809 
-4.81676 -5.89512 -0.021916 -3.81739 -5.1928 -0.118554 -3.09627 -4.38013 -0.24463 
-21.638 -3.23837 -0.642178 -21.8164 -3.10336 -0.266245 -21.9507 -3.00816 0.221474 
-22.0745 -2.93233 0.843609 -22.182 -2.92339 1.50159 -22.217 -3.08384 2.06033 
-22.1878 -3.43471 2.49667 -22.1314 -3.88616 2.83774 -22.0303 -4.34145 3.08244 
-22.3998 -4.30722 -1.11485 -23.4716 -5.27919 -1.37524 -24.5763 -6.18444 -1.69991 
-25.6064 -7.2474 -2.06108 -26.5647 -8.96032 -2.49277 -27.4128 -11.067 -2.86337 
-27.9024 -12.7797 -2.94144 -27.9557 -13.9933 -2.79572 -27.8187 -15.0656 -2.66027 
-20.5878 -2.47607 -0.659398 -19.6404 -1.50621 -0.323265 -18.6096 -0.474637 0.0735112 
-17.5616 0.544354 0.456486 -16.5279 1.41316 0.754933 -15.4743 2.10885 1.03848 
-14.3853 2.63138 1.35954 -13.3122 2.95894 1.65053 -12.3136 3.13857 1.87523 
-22.8781 -5.59445 2.8236 -23.9659 -6.5381 2.34854 -24.9672 -7.59742 1.7887 
-25.812 -8.74706 1.139 -26.5344 -10.0317 0.420616 -27.109 -11.4669 -0.295015 
-27.4791 -12.8266 -0.951811 -27.6549 -13.9789 -1.56493 -27.7016 -15.0525 -2.12405 
-21.0057 -3.64592 3.57518 -20.0563 -2.42248 3.90195 -18.9863 -1.1811 4.10003 
-17.7455 0.0384496 4.10658 -16.4358 1.18313 4.01638 -15.2653 2.02423 3.84305 
-14.2316 2.47066 3.46806 -13.2058 2.74678 2.95186 -12.2272 3.00792 2.46936 
-19.9032 -24.6102 -4.4127 -21.1008 -24.4043 -4.29859 -22.546 -23.6185 -4.06052 
-23.95 -22.7485 -3.84418 -25.0451 -21.9 -3.6947 -25.9121 -20.7531 -3.48278 
-26.7263 -19.4945 -3.20647 -27.3255 -18.399 -2.98264 -27.5856 -17.2905 -2.80069 
-2.61076 -2.48266 -0.217016 -2.70927 -1.35736 -0.0715778 -3.13039 -0.411285 0.0594001 
-3.94698 0.403852 0.276441 -5.032 1.34164 0.595419 -6.29947 2.26893 0.944987 
-7.72315 2.89879 1.30069 -9.12117 3.20765 1.63292 -10.3381 3.28364 1.88478 
-12.7387 -1.81777 -2.98882 -12.7496 -2.49681 -3.17036 -14.0339 -2.63132 -3.05827 
-12.7932 -3.11809 -3.41217 -14.1809 -3.33221 -3.27654 -15.4827 -3.64169 -3.11461 
-12.8719 -3.68747 -3.63914 -14.4093 -3.94672 -3.54082 -15.8112 -4.4105 -3.32292 
-17.1441 -5.00522 -3.16921 -13.2475 -4.55592 -3.69652 -14.8615 -4.77044 -3.67501 
-16.3702 -5.29906 -3.54147 -17.7128 -6.00847 -3.38287 -18.9596 -6.74075 -3.3546 
-14.0701 -5.68076 -3.58854 -15.6428 -6.01773 -3.57752 -17.1569 -6.6426 -3.59468 
-18.4643 -7.35321 -3.60948 -19.5734 -8.00818 -3.68479 -20.569 -8.54719 -3.81492 
-15.0744 -6.66628 -3.40067 -16.5451 -7.28514 -3.4033 -17.9128 -8.17314 -3.54331 
-19.1283 -9.00493 -3.74385 -20.1001 -9.57178 -3.99362 -20.9199 -9.94056 -4.24234 
-21.6908 -10.2011 -4.39579 -15.9612 -7.51263 -3.19359 -17.3108 -8.37119 -3.28159 
-18.4302 -9.46451 -3.57971 -19.4533 -10.4521 -3.92602 -20.3387 -11.0887 -4.2546 
-21.0484 -11.4084 -4.58423 -21.731 -11.5735 -4.8074 -22.4109 -11.6743 -4.87685 
-10.3769 -0.998293 -2.85976 -9.03411 -0.902359 -2.84553 -10.1506 -1.64301 -3.02375 
-7.61835 -0.909968 -2.85549 -8.75278 -1.59213 -3.03699 -10.0297 -2.32584 -3.22212 
-6.14498 -1.12195 -2.79795 -7.28604 -1.70689 -3.04554 -8.61646 -2.36181 -3.23375 
-9.93887 -3.00806 -3.4273 -4.80658 -1.60448 -2.63266 -5.82918 -2.10298 -2.94888 
-7.20395 -2.66448 -3.19134 -8.62866 -3.21418 -3.38254 -10.041 -3.86812 -3.57133 
-3.85646 -2.24209 -2.37006 -4.68642 -2.7039 -2.72442 -5.93194 -3.22713 -3.01214 
-7.45815 -3.65928 -3.2302 -8.95182 -4.18814 -3.43774 -10.5834 -4.91475 -3.63644 
-3.26925 -2.8704 -1.97293 -3.99598 -3.29651 -2.37831 -5.0454 -3.82482 -2.70519 
-6.48136 -4.23915 -2.94931 -8.07411 -4.59353 -3.15461 -9.65684 -5.20757 -3.43121 
-11.4664 -5.85386 -3.6151 -2.93508 -3.45912 -1.46023 -3.59564 -3.84583 -1.92518 
-4.55047 -4.33888 -2.31427 -5.79545 -4.79334 -2.61851 -7.33448 -5.06023 -2.82426 
-8.9584 -5.5052 -3.0831 -10.5753 -6.10985 -3.40664 -12.4155 -6.53908 -3.48987 
-3.40963 -4.8901 -0.780327 -4.31888 -5.77974 -0.666807 -4.14672 -5.37435 -1.3198 
-5.44846 -6.55722 -0.576613 -5.19125 -6.33976 -1.25354 -5.18294 -5.84527 -1.83391 
-6.65763 -7.07698 -0.487893 -6.3701 -7.00962 -1.17322 -6.27405 -6.63516 -1.79178 
-6.39063 -6.08089 -2.24202 -8.0434 -7.39528 -0.401651 -7.69641 -7.39107 -1.04657 
-7.54586 -7.15072 -1.67098 -7.61415 -6.71528 -2.17217 -7.92452 -6.25113 -2.50918 
[...]
POINT_DATA 1002
FIELD FieldData 4
_paraPhi 1 1002 double
6.2831853072 3.1415926536 6.2831853072 3.1415926536 4.7123889804 4.7123889804 1.5707963268 1.5707963268 3.6951670125 
5.7296109483 2.5880182947 0.5535743589 6.2831853072 6.2831853072 6.2831853072 6.2831853072 3.1415926536 3.1415926536 
3.1415926536 3.1415926536 3.1415926536 6.1053039672 5.898798347 5.6768734901 5.4599499503 5.2659633393 5.1032165617 
4.9713148346 4.8656852733 4.7809517865 0.17788134 0.38438696014 0.60631181711 0.82323535693 1.0172219679 1.1799687454 
1.3118704726 1.4175000338 1.5022335207 6.1892828907 6.1070320098 6.035312792 5.9728339911 5.9183214791 5.8706119594 
5.8286879411 5.7916808611 5.7588591896 0.093902416448 0.17615329733 0.2478725152 0.31035131605 0.36486382811 0.41257334776 
0.45449736604 0.4915044461 0.52432611754 3.3194739936 3.5259796137 3.7479044707 3.9648280105 4.1588146215 4.321561399 
4.4534631262 4.5590926874 4.6438261743 2.9637113136 2.7572056934 2.5352808365 2.3183572967 2.1243706857 1.9616239082 
1.829722181 1.7240926197 1.6393591329 3.23549507 3.3177459509 3.3894651688 3.4519439696 3.5064564817 3.5541660013 
3.5960900196 3.6330970997 3.6659187711 3.0476902371 2.9654393563 2.8937201384 2.8312413375 2.7767288255 2.7290193058 
2.6870952876 2.6500882075 2.617266536 6.2831853072 6.2831853072 6.2831853072 6.2831853072 3.1415926536 3.1415926536 
3.1415926536 3.1415926536 3.1415926536 6.1053039672 5.898798347 5.6768734901 5.4599499503 5.2659633393 5.1032165617 
4.9713148346 4.8656852733 4.7809517865 0.17788134 0.38438696014 0.60631181711 0.82323535693 1.0172219679 1.1799687454 
1.3118704726 1.4175000338 1.5022335207 6.1892828907 6.1070320098 6.035312792 5.9728339911 5.9183214791 5.8706119594 
5.8286879411 5.7916808611 5.7588591896 0.093902416448 0.17615329733 0.2478725152 0.31035131605 0.36486382811 0.41257334776 
0.45449736604 0.4915044461 0.52432611754 3.3194739936 3.5259796137 3.7479044707 3.9648280105 4.1588146215 4.321561399 
4.4534631262 4.5590926874 4.6438261743 2.9637113136 2.7572056934 2.5352808365 2.3183572967 2.1243706857 1.9616239082 
1.829722181 1.7240926197 1.6393591329 3.23549507 3.3177459509 3.3894651688 3.4519439696 3.5064564817 3.5541660013 
3.5960900196 3.6330970997 3.6659187711 3.0476902371 2.9654393563 2.8937201384 2.8312413375 2.7767288255 2.7290193058 
2.6870952876 2.6500882075 2.617266536 4.7123889804 4.7123889804 4.7123889804 4.7123889804 4.7123889804 4.7123889804 
4.7123889804 4.7123889804 4.7123889804 4.6087898617 4.4991390697 4.3857031936 4.2712800401 4.1588146215 4.0509635631 
3.94975894 3.8564636551 3.7716124825 4.8159880991 4.9256388911 5.0390747672 5.1534979207 5.2659633393 5.3738143976 
5.4750190208 5.5683143056 5.6531654782 4.6087898617 4.4991390697 4.3857031936 4.2712800401 4.1588146215 4.0509635631 
3.94975894 3.8564636551 3.7716124825 4.8159880991 4.9256388911 5.0390747672 5.1534979207 5.2659633393 5.3738143976 
5.4750190208 5.5683143056 5.6531654782 1.5707963268 1.5707963268 1.5707963268 1.5707963268 1.5707963268 1.5707963268 
1.5707963268 1.5707963268 1.5707963268 1.6743954455 1.7840462375 1.8974821136 2.0119052671 2.1243706857 2.232221744 
2.3334263672 2.426721652 2.5115728246 1.4671972081 1.3575464161 1.24411054 1.1296873865 1.0172219679 0.90937090954 
0.80816628637 0.71487100155 0.63001982895 1.6743954455 1.7840462375 1.8974821136 2.0119052671 2.1243706857 2.232221744 
2.3334263672 2.426721652 2.5115728246 1.4671972081 1.3575464161 1.24411054 1.1296873865 1.0172219679 0.90937090954 
0.80816628637 0.71487100155 0.63001982895 3.6007720849 3.4966939854 3.3839471039 3.2645756454 3.1415926536 3.0186096618 
2.8992382033 2.7864913217 2.6824132222 5.8240058758 5.9280839753 6.0408308569 6.1602023154 6.2831853072 0.12298299178 
0.2423544503 0.35510133185 0.45917943135 6.0560271438 5.7885595667 5.9702140275 5.5125918794 5.6029703303 5.7885595667 
5.2659633393 5.2659633393 5.2659633393 5.2659633393 5.0674903122 5.0120975802 4.9155579264 4.7123889804 4.1588146215 
4.9155579264 4.8353719722 4.7123889804 4.5092200343 4.1588146215 3.6362183941 4.8004512023 4.7123889804 4.5894059886 
4.4126803806 4.1588146215 3.8218076305 3.4545639333 4.7123889804 4.6243267584 4.5092200343 4.3572876485 4.1588146215 
3.9121860814 3.6362183941 3.368750817 6.0174235957 5.9434319871 5.8263323547 5.8809213739 5.7674481418 5.6279784266 
5.8278025282 5.718968232 5.5891129425 5.4372443565 5.7823484065 5.678536687 5.5575666702 5.4192596322 5.2659633393 
5.743164462 5.6444075337 5.5314983644 5.4046708639 5.2659633393 5.1195510325 5.7091357773 5.6152775188 5.5096229709 
5.3926039573 5.2659633393 5.1329233157 4.9978930058 5.6793730533 5.5901633916 5.4910209005 5.3824597928 5.2659633393 
5.1440684722 5.0201624502 4.8979782167 5.5683143056 5.4750190208 5.4750190208 5.3738143976 5.3738143976 5.3738143976 
5.2659633393 5.2659633393 5.2659633393 5.2659633393 5.1534979207 5.1534979207 5.1534979207 5.1534979207 5.1534979207 
5.0390747672 5.0390747672 5.0390747672 5.0390747672 5.0390747672 5.0390747672 4.9256388911 4.9256388911 4.9256388911 
4.9256388911 4.9256388911 4.9256388911 4.9256388911 4.8159880991 4.8159880991 4.8159880991 4.8159880991 4.8159880991 
4.8159880991 4.8159880991 4.8159880991 4.6087898617 4.6087898617 4.4991390697 4.6087898617 4.4991390697 4.3857031936 
4.6087898617 4.4991390697 4.3857031936 4.2712800401 4.6087898617 4.4991390697 4.3857031936 4.2712800401 4.1588146215 
4.6087898617 4.4991390697 4.3857031936 4.2712800401 4.1588146215 4.0509635631 4.6087898617 4.4991390697 4.3857031936 
4.2712800401 4.1588146215 4.0509635631 3.94975894 4.6087898617 4.4991390697 4.3857031936 4.2712800401 4.1588146215 
4.0509635631 3.94975894 3.8564636551 4.526799744 4.4046155105 4.426884955 4.2807094886 4.2918546451 4.3052269283 
4.1588146215 4.1588146215 4.1588146215 4.1588146215 4.042318168 4.0321740035 4.0201070968 4.0055183285 3.9875336042 
3.9337570603 3.9151549899 3.8932795963 3.8672112905 3.8356650183 3.7967995342 3.8346145692 3.809500442 3.7803704271 
3.7462412737 3.7058097288 3.657329819 3.5984456061 3.7454049075 3.7156421835 3.6816134988 3.6424295543 3.5969754326 
3.5438565869 3.4813459737 3.4073543651 3.5642842451 3.4524645613 3.5233842518 3.3320300872 3.403123212 3.4773852225 
3.20576226 3.2746326772 3.348015857 3.4255060145 3.0774230472 3.1415926536 3.2112816139 3.2864685043 3.3668817272 
2.95115522 3.00855263 3.0719036933 3.1415926536 3.2178377658 3.3005964304 2.8307207459 2.8800620952 2.9351694502 
2.9967168029 3.0653475414 3.1415926536 3.225752376 2.718901062 2.7598010554 2.8058000847 2.8576792927 2.91630358 
2.9825888767 3.0574329311 3.1415926536 3.5642842451 3.5233842518 3.4524645613 3.4773852225 3.403123212 3.3320300872 
3.4255060145 3.348015857 3.2746326772 3.20576226 3.3668817272 3.2864685043 3.2112816139 3.1415926536 3.0774230472 
3.3005964304 3.2178377658 3.1415926536 3.0719036933 3.00855263 2.95115522 3.225752376 3.1415926536 3.0653475414 
2.9967168029 2.9351694502 2.8800620952 2.8307207459 3.1415926536 3.0574329311 2.9825888767 2.91630358 2.8576792927 
2.8058000847 2.7598010554 2.718901062 4.526799744 4.426884955 4.4046155105 4.3052269283 4.2918546451 4.2807094886 
4.1588146215 4.1588146215 4.1588146215 4.1588146215 3.9875336042 4.0055183285 4.0201070968 4.0321740035 4.042318168 
3.7967995342 3.8356650183 3.8672112905 3.8932795963 3.9151549899 3.9337570603 3.5984456061 3.657329819 3.7058097288 
3.7462412737 3.7803704271 3.809500442 3.8346145692 3.4073543651 3.4813459737 3.5438565869 3.5969754326 3.6424295543 
3.6816134988 3.7156421835 3.7454049075 4.7123889804 4.8004512023 4.6243267584 4.9155579264 4.7123889804 4.5092200343 
5.0674903122 4.8353719722 4.5894059886 4.3572876485 5.2659633393 5.0120975802 4.7123889804 4.4126803806 4.1588146215 
5.5125918794 5.2659633393 4.9155579264 4.5092200343 4.1588146215 3.9121860814 5.7885595667 5.6029703303 5.2659633393 
4.7123889804 4.1588146215 3.8218076305 3.6362183941 6.0560271438 5.9702140275 5.7885595667 5.2659633393 4.1588146215 
3.6362183941 3.4545639333 3.368750817 0.22715816343 0.49462574053 0.3129712797 0.77059342779 0.68021497688 0.49462574053 
1.0172219679 1.0172219679 1.0172219679 1.0172219679 1.2156949949 1.271087727 1.3676273807 1.5707963268 2.1243706857 
1.3676273807 1.447813335 1.5707963268 1.7739652728 2.1243706857 2.6469669131 1.4827341049 1.5707963268 1.6937793186 
1.8705049266 2.1243706857 2.4613776767 2.8286213739 1.5707963268 1.6588585487 1.7739652728 1.9258976586 2.1243706857 
2.3709992258 2.6469669131 2.9144344902 1.7563855631 1.8785697967 1.8563003522 2.0024758186 1.9913306621 1.9779583789 
2.1243706857 2.1243706857 2.1243706857 2.1243706857 2.2408671392 2.2510113037 2.2630782103 2.2776669786 2.295651703 
2.3494282469 2.3680303173 2.3899057108 2.4159740166 2.4475202889 2.486385773 2.448570738 2.4736848652 2.5028148801 
2.5369440334 2.5773755784 2.6258554882 2.6847397011 2.5377803997 2.5675431237 2.6015718084 2.6407557529 2.6862098746 
2.7393287203 2.8018393335 2.8758309421 1.6743954455 1.6743954455 1.7840462375 1.6743954455 1.7840462375 1.8974821136 
1.6743954455 1.7840462375 1.8974821136 2.0119052671 1.6743954455 1.7840462375 1.8974821136 2.0119052671 2.1243706857 
1.6743954455 1.7840462375 1.8974821136 2.0119052671 2.1243706857 2.232221744 1.6743954455 1.7840462375 1.8974821136 
2.0119052671 2.1243706857 2.232221744 2.3334263672 1.6743954455 1.7840462375 1.8974821136 2.0119052671 2.1243706857 
2.232221744 2.3334263672 2.426721652 1.4671972081 1.3575464161 1.4671972081 1.24411054 1.3575464161 1.4671972081 
1.1296873865 1.24411054 1.3575464161 1.4671972081 1.0172219679 1.1296873865 1.24411054 1.3575464161 1.4671972081 
0.90937090954 1.0172219679 1.1296873865 1.24411054 1.3575464161 1.4671972081 0.80816628637 0.90937090954 1.0172219679 
1.1296873865 1.24411054 1.3575464161 1.4671972081 0.71487100155 0.80816628637 0.90937090954 1.0172219679 1.1296873865 
1.24411054 1.3575464161 1.4671972081 0.60381225391 0.57404952988 0.69302191562 0.54002084522 0.66790778838 0.79216440667 
0.50083690068 0.63877777351 0.77356233629 0.90072551443 0.45538277901 0.60464862014 0.75168694275 0.89058134991 1.0172219679 
0.40226393329 0.56421707518 0.72561863695 0.87851444325 1.0172219679 1.139116835 0.33975332011 0.51573716537 0.69407236469 
0.86392567495 1.0172219679 1.1502619915 1.2630228569 0.26576171152 0.45685295248 0.6552068806 0.84594095064 1.0172219679 
1.1636342747 1.2852923014 1.3852070904 0.22715816343 0.3129712797 0.49462574053 0.49462574053 0.68021497688 0.77059342779 
1.0172219679 1.0172219679 1.0172219679 1.0172219679 2.1243706857 1.5707963268 1.3676273807 1.271087727 1.2156949949 
2.6469669131 2.1243706857 1.7739652728 1.5707963268 1.447813335 1.3676273807 2.8286213739 2.4613776767 2.1243706857 
1.8705049266 1.6937793186 1.5707963268 1.4827341049 2.9144344902 2.6469669131 2.3709992258 2.1243706857 1.9258976586 
1.7739652728 1.6588585487 1.5707963268 1.7563855631 1.8563003522 1.8785697967 1.9779583789 1.9913306621 2.0024758186 
2.1243706857 2.1243706857 2.1243706857 2.1243706857 2.295651703 2.2776669786 2.2630782103 2.2510113037 2.2408671392 
2.486385773 2.4475202889 2.4159740166 2.3899057108 2.3680303173 2.3494282469 2.6847397011 2.6258554882 2.5773755784 
2.5369440334 2.5028148801 2.4736848652 2.448570738 2.8758309421 2.8018393335 2.7393287203 2.6862098746 2.6407557529 
2.6015718084 2.5675431237 2.5377803997 5.8604937156 5.901393709 5.9723133995 5.9473927383 6.0216547488 6.0927478736 
5.9992719463 6.0767621038 6.1501452836 6.2190157008 6.0578962336 6.1383094565 6.2134963469 0 0.064169606361 
6.1241815303 6.206940195 6.2831853072 0.069688960264 0.13304002361 0.19043743361 6.1990255847 0 0.07624511221 
0.14487585072 0.20642320337 0.26153055843 0.3108719077 0 0.084159722458 0.15900377685 0.22528907359 0.28391336087 
0.3357925689 0.38179159818 0.42269159155 5.8604937156 5.9723133995 5.901393709 6.0927478736 6.0216547488 5.9473927383 
6.2190157008 6.1501452836 6.0767621038 5.9992719463 0.064169606361 0 6.2134963469 6.1383094565 6.0578962336 
0.19043743361 0.13304002361 0.069688960264 6.2831853072 6.206940195 6.1241815303 0.3108719077 0.26153055843 0.20642320337 
0.14487585072 0.07624511221 6.2831853072 6.1990255847 0.42269159155 0.38179159818 0.3357925689 0.28391336087 0.22528907359 
0.15900377685 0.084159722458 0 5.6793730533 5.7091357773 5.5901633916 5.743164462 5.6152775188 5.4910209005 
5.7823484065 5.6444075337 5.5096229709 5.3824597928 5.8278025282 5.678536687 5.5314983644 5.3926039573 5.2659633393 
5.8809213739 5.718968232 5.5575666702 5.4046708639 5.2659633393 5.1440684722 5.9434319871 5.7674481418 5.5891129425 
5.4192596322 5.2659633393 5.1329233157 5.0201624502 6.0174235957 5.8263323547 5.6279784266 5.4372443565 5.2659633393 
5.1195510325 4.9978930058 4.8979782167 1.3852070904 1.2852923014 1.2630228569 1.1636342747 1.1502619915 1.139116835 
1.0172219679 1.0172219679 1.0172219679 1.0172219679 0.84594095064 0.86392567495 0.87851444325 0.89058134991 0.90072551443 
0.6552068806 0.69407236469 0.72561863695 0.75168694275 0.77356233629 0.79216440667 0.45685295248 0.51573716537 0.56421707518 
0.60464862014 0.63877777351 0.66790778838 0.69302191562 0.26576171152 0.33975332011 0.40226393329 0.45538277901 0.50083690068 
0.54002084522 0.57404952988 0.60381225391 
_paraPhiHalf 1 1002 double
0 3.1415926536 0 3.1415926536 1.5707963268 1.5707963268 1.5707963268 1.5707963268 2.5880182947 
0.5535743589 2.5880182947 0.5535743589 0 0 0 0 3.1415926536 3.1415926536 
3.1415926536 3.1415926536 3.1415926536 0.17788134 0.38438696014 0.60631181711 0.82323535693 1.0172219679 1.1799687454 
1.3118704726 1.4175000338 1.5022335207 0.17788134 0.38438696014 0.60631181711 0.82323535693 1.0172219679 1.1799687454 
1.3118704726 1.4175000338 1.5022335207 0.093902416448 0.17615329733 0.2478725152 0.31035131605 0.36486382811 0.41257334776 
0.45449736604 0.4915044461 0.52432611754 0.093902416448 0.17615329733 0.2478725152 0.31035131605 0.36486382811 0.41257334776 
0.45449736604 0.4915044461 0.52432611754 2.9637113136 2.7572056934 2.5352808365 2.3183572967 2.1243706857 1.9616239082 
1.829722181 1.7240926197 1.6393591329 2.9637113136 2.7572056934 2.5352808365 2.3183572967 2.1243706857 1.9616239082 
1.829722181 1.7240926197 1.6393591329 3.0476902371 2.9654393563 2.8937201384 2.8312413375 2.7767288255 2.7290193058 
2.6870952876 2.6500882075 2.617266536 3.0476902371 2.9654393563 2.8937201384 2.8312413375 2.7767288255 2.7290193058 
2.6870952876 2.6500882075 2.617266536 0 0 0 0 3.1415926536 3.1415926536 
3.1415926536 3.1415926536 3.1415926536 0.17788134 0.38438696014 0.60631181711 0.82323535693 1.0172219679 1.1799687454 
1.3118704726 1.4175000338 1.5022335207 0.17788134 0.38438696014 0.60631181711 0.82323535693 1.0172219679 1.1799687454 
1.3118704726 1.4175000338 1.5022335207 0.093902416448 0.17615329733 0.2478725152 0.31035131605 0.36486382811 0.41257334776 
0.45449736604 0.4915044461 0.52432611754 0.093902416448 0.17615329733 0.2478725152 0.31035131605 0.36486382811 0.41257334776 
0.45449736604 0.4915044461 0.52432611754 2.9637113136 2.7572056934 2.5352808365 2.3183572967 2.1243706857 1.9616239082 
1.829722181 1.7240926197 1.6393591329 2.9637113136 2.7572056934 2.5352808365 2.3183572967 2.1243706857 1.9616239082 
1.829722181 1.7240926197 1.6393591329 3.0476902371 2.9654393563 2.8937201384 2.8312413375 2.7767288255 2.7290193058 
2.6870952876 2.6500882075 2.617266536 3.0476902371 2.9654393563 2.8937201384 2.8312413375 2.7767288255 2.7290193058 
2.6870952876 2.6500882075 2.617266536 1.5707963268 1.5707963268 1.5707963268 1.5707963268 1.5707963268 1.5707963268 
1.5707963268 1.5707963268 1.5707963268 1.6743954455 1.7840462375 1.8974821136 2.0119052671 2.1243706857 2.232221744 
2.3334263672 2.426721652 2.5115728246 1.4671972081 1.3575464161 1.24411054 1.1296873865 1.0172219679 0.90937090954 
0.80816628637 0.71487100155 0.63001982895 1.6743954455 1.7840462375 1.8974821136 2.0119052671 2.1243706857 2.232221744 
2.3334263672 2.426721652 2.5115728246 1.4671972081 1.3575464161 1.24411054 1.1296873865 1.0172219679 0.90937090954 
0.80816628637 0.71487100155 0.63001982895 1.5707963268 1.5707963268 1.5707963268 1.5707963268 1.5707963268 1.5707963268 
1.5707963268 1.5707963268 1.5707963268 1.6743954455 1.7840462375 1.8974821136 2.0119052671 2.1243706857 2.232221744 
2.3334263672 2.426721652 2.5115728246 1.4671972081 1.3575464161 1.24411054 1.1296873865 1.0172219679 0.90937090954 
0.80816628637 0.71487100155 0.63001982895 1.6743954455 1.7840462375 1.8974821136 2.0119052671 2.1243706857 2.232221744 
2.3334263672 2.426721652 2.5115728246 1.4671972081 1.3575464161 1.24411054 1.1296873865 1.0172219679 0.90937090954 
0.80816628637 0.71487100155 0.63001982895 2.6824132222 2.7864913217 2.8992382033 3.0186096618 3.1415926536 3.0186096618 
2.8992382033 2.7864913217 2.6824132222 0.45917943135 0.35510133185 0.2423544503 0.12298299178 0 0.12298299178 
0.2423544503 0.35510133185 0.45917943135 0.22715816343 0.49462574053 0.3129712797 0.77059342779 0.68021497688 0.49462574053 
1.0172219679 1.0172219679 1.0172219679 1.0172219679 1.2156949949 1.271087727 1.3676273807 1.5707963268 2.1243706857 
1.3676273807 1.447813335 1.5707963268 1.7739652728 2.1243706857 2.6469669131 1.4827341049 1.5707963268 1.6937793186 
1.8705049266 2.1243706857 2.4613776767 2.8286213739 1.5707963268 1.6588585487 1.7739652728 1.9258976586 2.1243706857 
2.3709992258 2.6469669131 2.9144344902 0.26576171152 0.33975332011 0.45685295248 0.40226393329 0.51573716537 0.6552068806 
0.45538277901 0.56421707518 0.69407236469 0.84594095064 0.50083690068 0.60464862014 0.72561863695 0.86392567495 1.0172219679 
0.54002084522 0.63877777351 0.75168694275 0.87851444325 1.0172219679 1.1636342747 0.57404952988 0.66790778838 0.77356233629 
0.89058134991 1.0172219679 1.1502619915 1.2852923014 0.60381225391 0.69302191562 0.79216440667 0.90072551443 1.0172219679 
1.139116835 1.2630228569 1.3852070904 0.71487100155 0.80816628637 0.80816628637 0.90937090954 0.90937090954 0.90937090954 
1.0172219679 1.0172219679 1.0172219679 1.0172219679 1.1296873865 1.1296873865 1.1296873865 1.1296873865 1.1296873865 
1.24411054 1.24411054 1.24411054 1.24411054 1.24411054 1.24411054 1.3575464161 1.3575464161 1.3575464161 
1.3575464161 1.3575464161 1.3575464161 1.3575464161 1.4671972081 1.4671972081 1.4671972081 1.4671972081 1.4671972081 
1.4671972081 1.4671972081 1.4671972081 1.6743954455 1.6743954455 1.7840462375 1.6743954455 1.7840462375 1.8974821136 
1.6743954455 1.7840462375 1.8974821136 2.0119052671 1.6743954455 1.7840462375 1.8974821136 2.0119052671 2.1243706857 
1.6743954455 1.7840462375 1.8974821136 2.0119052671 2.1243706857 2.232221744 1.6743954455 1.7840462375 1.8974821136 
2.0119052671 2.1243706857 2.232221744 2.3334263672 1.6743954455 1.7840462375 1.8974821136 2.0119052671 2.1243706857 
2.232221744 2.3334263672 2.426721652 1.7563855631 1.8785697967 1.8563003522 2.0024758186 1.9913306621 1.9779583789 
2.1243706857 2.1243706857 2.1243706857 2.1243706857 2.2408671392 2.2510113037 2.2630782103 2.2776669786 2.295651703 
2.3494282469 2.3680303173 2.3899057108 2.4159740166 2.4475202889 2.486385773 2.448570738 2.4736848652 2.5028148801 
2.5369440334 2.5773755784 2.6258554882 2.6847397011 2.5377803997 2.5675431237 2.6015718084 2.6407557529 2.6862098746 
2.7393287203 2.8018393335 2.8758309421 2.718901062 2.8307207459 2.7598010554 2.95115522 2.8800620952 2.8058000847 
3.0774230472 3.00855263 2.9351694502 2.8576792927 3.0774230472 3.1415926536 3.0719036933 2.9967168029 2.91630358 
2.95115522 3.00855263 3.0719036933 3.1415926536 3.0653475414 2.9825888767 2.8307207459 2.8800620952 2.9351694502 
2.9967168029 3.0653475414 3.1415926536 3.0574329311 2.718901062 2.7598010554 2.8058000847 2.8576792927 2.91630358 
2.9825888767 3.0574329311 3.1415926536 2.718901062 2.7598010554 2.8307207459 2.8058000847 2.8800620952 2.95115522 
2.8576792927 2.9351694502 3.00855263 3.0774230472 2.91630358 2.9967168029 3.0719036933 3.1415926536 3.0774230472 
2.9825888767 3.0653475414 3.1415926536 3.0719036933 3.00855263 2.95115522 3.0574329311 3.1415926536 3.0653475414 