# vtk DataFile Version 5.1
vtk output
ASCII
DATASET POLYDATA
POINTS 100 float
-4.32556 3.96424 1.44656 -4.32764 3.9614 1.44241 -4.33435 3.95037 1.43319 
-4.34695 3.93044 1.41936 -4.3672 3.90054 1.40156 -4.39713 3.85932 1.38064 
-4.43862 3.8053 1.35751 -4.49308 3.73706 1.33308 -4.56125 3.65337 1.30823 
-4.64307 3.5534 1.28371 -4.7378 3.43681 1.2601 -4.84416 3.30384 1.2378 
-4.96068 3.15537 1.217 -5.08595 2.99279 1.19769 -5.21897 2.81795 1.17965 
-5.35929 2.63292 1.16247 -5.50706 2.43981 1.14558 -5.66297 2.24058 1.12828 
-5.82806 2.03679 1.10977 -6.00341 1.82959 1.08927 -6.18992 1.61957 1.06603 
-6.38804 1.40686 1.03949 -6.59766 1.19123 1.00929 -6.81808 0.97221 0.975335 
-7.04808 0.749291 0.937846 -7.28618 0.522035 0.897285 -7.53078 0.29019 0.854299 
-7.78044 0.0537107 0.809603 -8.03405 -0.18727 0.763832 -8.29087 -0.432526 0.7174 
-8.55056 -0.681843 0.670385 -8.81308 -0.935117 0.622456 -9.0785 -1.19242 0.57288 
-9.34689 -1.45401 0.520597 -9.61817 -1.72027 0.464364 -9.89208 -1.9916 0.402951 
-10.1682 -2.26832 0.335345 -10.4461 -2.55055 0.260931 -10.7253 -2.83818 0.179619 
-11.0059 -3.13085 0.0918683 -11.2881 -3.42812 -0.00137463 -11.5727 -3.72964 -0.0988462 
-11.8607 -4.03539 -0.199201 -12.1535 -4.34586 -0.301279 -12.4519 -4.66228 -0.404358 
-12.7565 -4.98661 -0.508333 -13.0672 -5.32144 -0.613806 -13.3825 -5.66972 -0.722035 
-13.6999 -6.0344 -0.834774 -14.016 -6.41794 -0.954005 -14.3263 -6.82187 -1.08162 
-14.626 -7.24643 -1.21911 -14.9103 -7.69035 -1.36729 -15.1747 -8.15087 -1.52613 
-15.4159 -8.62401 -1.69474 -15.6315 -9.10496 -1.87146 -15.8205 -9.5887 -2.05408 
-15.9834 -10.0706 -2.24011 -16.1214 -10.5469 -2.42715 -16.2368 -11.0153 -2.61311 
-16.3323 -11.475 -2.79645 -16.4105 -11.9265 -2.97626 -16.4739 -12.3716 -3.1522 
-16.5245 -12.8126 -3.32443 -16.564 -13.2518 -3.49334 -16.5934 -13.6913 -3.65935 
-16.6134 -14.1319 -3.82271 -16.6245 -14.5736 -3.98336 -16.6271 -15.0148 -4.14088 
-16.6218 -15.4534 -4.29454 -16.6093 -15.8866 -4.44344 -16.5903 -16.3114 -4.58667 
-16.566 -16.7254 -4.72351 -16.5373 -17.1268 -4.85353 -16.5056 -17.5147 -4.97669 
-16.4719 -17.8892 -5.09331 -16.4374 -18.251 -5.20394 -16.4034 -18.601 -5.30923 
-16.371 -18.9403 -5.40973 -16.3415 -19.2692 -5.50572 -16.3162 -19.5876 -5.59711 
-16.2964 -19.8944 -5.68341 -16.2833 -20.1879 -5.7638 -16.2779 -20.4661 -5.8373 
-16.2808 -20.727 -5.90294 -16.2923 -20.9689 -5.95998 -16.3121 -21.1909 -6.00811 
-16.3391 -21.393 -6.0475 -16.3719 -21.576 -6.07884 -16.4086 -21.7415 -6.10328 
-16.4473 -21.8913 -6.12221 -16.4857 -22.0272 -6.13706 -16.522 -22.1506 -6.14915 
-16.5547 -22.262 -6.15942 -16.5827 -22.3609 -6.16843 -16.6056 -22.4461 -6.17628 
-16.6231 -22.5157 -6.18272 -16.6353 -22.5674 -6.18729 -16.6426 -22.5994 -6.18951 
-16.6451 -22.6103 -6.18903 
LINES 2 100
OFFSETS vtktypeint64
0 100 
CONNECTIVITY vtktypeint64
0 1 2 3 4 5 6 7 8 
9 10 11 12 13 14 15 16 17 
18 19 20 21 22 23 24 25 26 
27 28 29 30 31 32 33 34 35 
36 37 38 39 40 41 42 43 44 
45 46 47 48 49 50 51 52 53 
54 55 56 57 58 59 60 61 62 
63 64 65 66 67 68 69 70 71 
72 73 74 75 76 77 78 79 80 
81 82 83 84 85 86 87 88 89 
90 91 92 93 94 95 96 97 98 
99 
POINT_DATA 100
FIELD FieldData 3
_theta 1 100 double
0 0.031733259127 0.063466518254 0.095199777382 0.12693303651 0.15866629564 0.19039955476 0.22213281389 0.25386607302 
0.28559933214 0.31733259127 0.3490658504 0.38079910953 0.41253236865 0.44426562778 0.47599888691 0.50773214603 0.53946540516 
0.57119866429 0.60293192342 0.63466518254 0.66639844167 0.6981317008 0.72986495992 0.76159821905 0.79333147818 0.82506473731 
0.85679799643 0.88853125556 0.92026451469 0.95199777382 0.98373103294 1.0154642921 1.0471975512 1.0789308103 1.1106640695 
1.1423973286 1.1741305877 1.2058638468 1.237597106 1.2693303651 1.3010636242 1.3327968833 1.3645301425 1.3962634016 
1.4279966607 1.4597299198 1.491463179 1.5231964381 1.5549296972 1.5866629564 1.6183962155 1.6501294746 1.6818627337 
1.7135959929 1.745329252 1.7770625111 1.8087957702 1.8405290294 1.8722622885 1.9039955476 1.9357288068 1.9674620659 
1.999195325 2.0309285841 2.0626618433 2.0943951024 2.1261283615 2.1578616206 2.1895948798 2.2213281389 2.253061398 
2.2847946572 2.3165279163 2.3482611754 2.3799944345 2.4117276937 2.4434609528 2.4751942119 2.506927471 2.5386607302 
2.5703939893 2.6021272484 2.6338605076 2.6655937667 2.6973270258 2.7290602849 2.7607935441 2.7925268032 2.8242600623 
2.8559933214 2.8877265806 2.9194598397 2.9511930988 2.982926358 3.0146596171 3.0463928762 3.0781261353 3.1098593945 
3.1415926536 
_radius 1 100 double
5.8579390042e-15 0.27232276362 0.54308915284 0.81088176695 1.0746360327 1.3336560255 1.5875117413 1.8358711341 2.0783380556 
2.3143525048 2.5431741547 2.7639334931 2.9757139226 3.1776298829 3.3688852993 3.5488185909 3.7169492649 3.8730310888 
4.0170970879 4.1494686702 4.2707057846 4.3814952226 4.4824990261 4.5742026332 4.6568062768 4.730193295 4.7939901647 
4.8477108845 4.8909570046 4.9236271695 4.9460803892 4.9592004807 4.9643287216 4.9630654507 4.9569791495 4.9472891819 
4.934594814 4.9187075918 4.8986169331 4.8725943615 4.8384281138 4.7937727426 4.7365866286 4.6656074968 4.580788189 
4.4835976444 4.3770999223 4.265762251 4.1550054901 4.0505822052 3.9579250755 3.8816177139 3.825072129 3.7903730305 
3.7781691021 3.7875548018 3.8160421958 3.8597825843 3.9140770522 3.9740436105 4.0352392128 4.0940851749 4.1480455368 
4.1955946994 4.2360534799 4.2693708025 4.2958984041 4.3161736183 4.3307122983 4.3398252964 4.3434924133 4.3413331299 
4.3326892358 4.3167887586 4.2929206318 4.2605425552 4.2192770318 4.1688037688 4.1087009309 4.0383028432 3.9566268767 
3.8623920541 3.7541241561 3.6303264727 3.4896901983 3.3313160808 3.1549139964 2.9609418719 2.7506476228 2.5259939083 
2.2894737161 2.0438539992 1.7919007574 1.5361349467 1.2786495187 1.0209968133 0.76414317798 0.50848546764 0.25392581789 
3.7798721875e-14 
_area 1 100 double
0 0.20552962634 0.81803381875 1.8261867754 3.2134856199 4.9598824805 7.0418255522 9.4308239236 12.091831831 
14.983103888 18.058529254 21.272113206 24.582863727 27.957631325 31.370084351 34.796034411 38.207750887 41.57086306 
44.845823414 47.992934119 50.978149658 53.777248615 56.377354669 58.775780897 60.976540216 62.985233763 64.803810301 
66.427411613 67.845203223 69.04539286 70.022425784 70.782966216 71.347543012 71.746581472 72.012055634 72.167780791 
72.221403106 72.159679122 71.947119994 71.527864649 70.831566978 69.784541528 68.32627768 66.429143857 64.116735394 
61.474843404 58.649322185 55.826936823 53.197583591 50.905421637 49.019946344 47.552916494 46.491769374 45.814536299 
45.493956275 45.502151948 45.808469942 46.36884871 47.120161567 47.989284163 48.907020687 49.811446263 50.641073235 
51.330783732 51.819286561 52.065322561 52.06369862 51.852719866 51.507396811 51.116739222 50.749897398 50.425183984 
50.101938851 49.703983225 49.157289682 48.415477282 47.463783569 46.308614531 44.963234036 43.436710541 41.72886344 
39.830726705 37.728335921 35.407620089 32.85965456 30.086896453 27.110332334 23.975260355 20.752324268 17.531792851 
14.41199892 11.48550245 8.8275214197 6.490046593 4.5024862837 2.8770856105 1.6160349677 0.71751007967 0.17927747704 
8.5265128291e-14 
