# vtk DataFile Version 5.1
vtk output
ASCII
DATASET POLYDATA
POINTS 1002 float
-11.5961 -0.444888 -2.72407 -23.8068 -13.1846 -5.2415 -10.9511 -3.26675 3.6573 
-22.4403 -14.1121 0.28634 -15.1627 -7.73913 -3.17235 -14.1452 -8.75399 0.254238 
-21.217 -3.29201 -0.962634 -22.2883 -5.03769 3.22922 -19.5539 -24.3974 -4.51313 
-2.57511 -3.11497 -0.011071 -28.2237 -16.7962 -2.63963 -10.9207 3.55366 2.07203 
-12.5858 -1.04354 -2.82382 -13.7604 -1.71525 -2.96582 -15.1282 -2.54634 -3.11349 
-16.6723 -3.76546 -3.16127 -18.3455 -5.39667 -3.18376 -20.011 -7.1765 -3.41194 
-21.4577 -8.90443 -3.88313 -22.5516 -10.4966 -4.43399 -23.3062 -11.9079 -4.91183 
-11.3927 -0.865952 -2.94404 -11.2671 -1.3961 -3.155 -11.2479 -2.06978 -3.33926 
-11.3562 -2.83795 -3.5225 -11.655 -3.64324 -3.70721 -12.1373 -4.49411 -3.79057 
-12.7151 -5.38093 -3.71475 -13.4096 -6.24125 -3.55613 -14.2609 -7.02569 -3.37352 
-12.4315 -0.419598 -2.54333 -13.369 -0.442972 -2.33324 -14.4038 -0.515433 -2.15013 
-15.497 -0.644874 -2.01207 -16.5912 -0.902878 -1.83353 -17.6479 -1.32751 -1.58237 
-18.6503 -1.80487 -1.36723 -19.5924 -2.26402 -1.23179 -20.4569 -2.76096 -1.10603 
-10.4967 -0.173411 -2.73794 -9.28106 -0.0179462 -2.68435 -7.97914 0.0355444 -2.58861 
-6.67618 0.0155934 -2.46935 -5.40715 -0.202104 -2.25885 -4.20238 -0.691054 -1.92743 
-3.25285 -1.26969 -1.5298 -2.72116 -1.83168 -1.06713 -2.53945 -2.452 -0.534576 
-11.1868 0.153795 -2.51555 -10.8036 0.781889 -2.25816 -10.4744 1.4127 -1.92957 
-10.2534 1.9917 -1.50506 -10.1438 2.47807 -0.976846 -10.1173 2.92451 -0.408143 
-10.2188 3.34836 0.162703 -10.457 3.62539 0.794661 -10.7185 3.67512 1.47143 
-23.3248 -13.1944 -5.23579 -22.7729 -13.1437 -5.18269 -22.1255 -13.0127 -5.11297 
-21.4021 -12.7429 -4.93085 -20.6576 -12.2608 -4.57178 -19.8386 -11.5167 -4.15794 
-18.8421 -10.5014 -3.76991 -17.685 -9.35592 -3.42013 -16.4369 -8.36884 -3.20539 
-23.9725 -12.3211 -4.98884 -24.0216 -11.3236 -4.60952 -23.9182 -10.2263 -4.17336 
-23.7032 -9.08356 -3.75259 -23.4136 -7.92059 -3.29987 -23.0101 -6.8036 -2.77328 
-22.516 -5.80381 -2.24824 -22.0377 -4.89615 -1.7834 -21.6131 -4.04995 -1.36211 
-23.8648 -14.5569 -5.47597 -23.8022 -16.1642 -5.6621 -23.6331 -17.8425 -5.88897 
-23.3299 -19.3121 -6.12058 -22.8668 -20.6129 -6.15601 -22.2451 -21.9947 -6.00408 
-21.447 -23.2998 -5.85713 -20.5675 -24.1374 -5.64473 -19.8749 -24.4404 -5.17881 
-24.3443 -13.9784 -5.32384 -24.8867 -14.8645 -5.32616 -25.4294 -15.7317 -5.3044 
-25.9988 -16.4095 -5.24453 -26.5601 -16.8836 -5.06044 -27.0513 -17.2399 -4.75397 
-27.5304 -17.4285 -4.36152 -27.9848 -17.3806 -3.84617 -28.2384 -17.1448 -3.2334 
-12.0848 -3.88816 3.64138 -13.3629 -4.69672 3.67052 -14.7408 -5.62121 3.66492 
-16.1746 -6.56105 3.43688 -17.6138 -7.6231 3.00739 -18.9843 -8.90523 2.49916 
-20.1815 -10.2423 1.87656 -21.1329 -11.5266 1.20475 -21.8635 -12.8216 0.667985 
-10.927 -3.77845 3.47529 -10.995 -4.35115 3.24128 -11.1512 -4.95933 2.95243 
-11.3569 -5.58655 2.63359 -11.6275 -6.22667 2.2883 -12.0061 -6.84797 1.91138 
-12.4729 -7.43191 1.51895 -12.9909 -7.96638 1.11452 -13.5515 -8.40812 0.689041 
-11.6881 -3.15195 3.84111 -12.4268 -3.0946 4.09885 -13.2369 -3.06196 4.31028 
-14.3863 -3.04588 4.27164 -15.8871 -3.13286 4.03334 -17.3978 -3.41614 3.82832 
-18.7893 -3.86196 3.69827 -20.1444 -4.33673 3.57117 -21.3639 -4.73486 3.42355 
-9.84216 -3.05327 3.55149 -8.75707 -2.87801 3.33835 -7.71367 -2.73236 2.99338 
-6.61253 -2.67005 2.60569 -5.50482 -2.69283 2.23929 -4.55181 -2.75733 1.88553 
-3.7179 -2.88348 1.52748 -3.00762 -3.03827 1.11036 -2.60983 -3.12095 0.583934 
-10.3497 -2.59423 3.75098 -9.79673 -1.80195 3.771 -9.3251 -0.893822 3.73791 
-8.99903 0.0401503 3.70304 -8.8786 0.945977 3.60741 -8.95595 1.79904 3.39678 
-9.24803 2.51065 3.14081 -9.77092 3.03044 2.86031 -10.3889 3.37723 2.50164 
-21.9483 -13.9215 0.2368 -21.4045 -13.6553 0.229439 -20.7862 -13.2469 0.249706 
-20.065 -12.6252 0.271308 -19.2257 -11.8132 0.308881 -18.2726 -10.9242 0.378836 
-17.2325 -10.1075 0.447894 -16.1518 -9.47276 0.462055 -15.0998 -9.03555 0.392411 
-22.5971 -13.46 0.582404 -22.7512 -12.7285 0.923202 -22.8797 -11.9208 1.28786 
-22.9713 -11.0471 1.6594 -23.0139 -10.105 2.03883 -23.0401 -9.12754 2.40556 
-23.0836 -8.15164 2.72998 -23.0316 -7.13804 2.99324 -22.7523 -6.07431 3.16351 
-22.6543 -15.3453 -0.122554 -22.8029 -16.6931 -0.627192 -22.8101 -18.1286 -1.17772 
-22.626 -19.691 -1.63004 -22.2528 -21.3431 -1.95934 -21.713 -22.8623 -2.2489 
-21.0259 -23.9642 -2.57945 -20.3019 -24.5149 -3.08778 -19.7652 -24.6037 -3.79935 
-23.0648 -14.9883 0.108478 -23.7135 -15.7866 -0.126965 -24.3763 -16.4294 -0.412568 
-25.077 -16.9448 -0.652809 -25.8401 -17.2994 -0.854862 -26.5836 -17.404 -1.14937 
-27.1847 -17.3454 -1.53176 -27.6395 -17.2448 -1.89895 -27.9922 -17.073 -2.25259 
-14.8804 -7.88501 -3.05033 -14.5075 -8.01777 -2.85341 -14.1337 -8.15153 -2.57117 
-13.8812 -8.31403 -2.26469 -13.7506 -8.53343 -1.92369 -13.6928 -8.76571 -1.48743 
-13.7221 -8.89662 -1.00757 -13.8318 -8.89048 -0.556028 -13.9784 -8.82122 -0.1342 
-16.8489 -9.02074 -3.01705 -18.3059 -10.991 -3.19444 -19.1034 -13.3634 -3.79865 
-19.2488 -15.5749 -4.4615 -19.2415 -17.4353 -4.79696 -19.414 -19.1893 -4.90894 
-19.5873 -20.9011 -4.98834 -19.5585 -22.3909 -4.97567 -19.4644 -23.5619 -4.80558 
-13.3024 -7.1092 -3.36623 -11.5007 -6.76373 -3.45775 -9.89715 -6.29118 -3.28115 
-8.406 -5.68198 -2.91006 -6.91487 -5.26096 -2.49757 -5.51191 -4.97822 -2.08386 
-4.39536 -4.61439 -1.62853 -3.58751 -4.17833 -1.09967 -2.98277 -3.68416 -0.534281 
-15.4269 -9.33584 -0.1266 -16.922 -10.4904 -0.595226 -18.3629 -12.5701 -1.13314 
-19.2846 -15.2266 -1.71267 -19.5325 -17.6365 -2.26251 -19.5061 -19.5456 -2.72781 
-19.5323 -21.2 -3.14267 -19.5165 -22.612 -3.56436 -19.4426 -23.6746 -4.02347 
-12.8493 -8.35206 0.327383 -11.4886 -7.89587 0.340557 -10.0479 -7.38405 0.334478 
-8.58598 -6.95258 0.357891 -7.18488 -6.60797 0.393834 -5.83793 -6.19954 0.381727 
-4.59675 -5.66819 0.326843 -3.62245 -4.9916 0.259793 -2.97275 -4.11719 0.154297 
-21.398 -3.18523 -0.592397 -21.5603 -3.07958 -0.142586 -21.7466 -2.95182 0.366844 
-21.9515 -2.85051 0.921674 -22.0995 -2.90669 1.48307 -22.1815 -3.1826 1.98461 
-22.2648 -3.60466 2.41602 -22.3549 -4.08062 2.78528 -22.3819 -4.56747 3.06 
-22.2134 -4.26145 -1.10455 -23.3052 -5.16883 -1.34977 -24.4089 -6.08917 -1.65945 
-25.4278 -7.4584 -1.99606 -26.4048 -9.50713 -2.40055 -27.3616 -11.7072 -2.79606 
-28.0656 -13.4322 -2.97273 -28.3437 -14.707 -2.90706 -28.3342 -15.811 -2.76068 
-20.352 -2.22976 -0.661448 -19.397 -1.14681 -0.355702 -18.3539 -0.0948939 -0.0158061 
-17.2653 0.91866 0.353403 -16.1952 1.83362 0.679308 -15.1189 2.53222 0.966134 
-13.9809 2.98409 1.29286 -12.8609 3.27119 1.62054 -11.8522 3.46245 1.87346 
-23.3229 -5.93082 2.90447 -24.3221 -6.89305 2.42147 -25.3522 -8.01257 1.86737 
-26.2984 -9.3105 1.29238 -27.034 -10.7309 0.6112 -27.5873 -12.1651 -0.175482 
-27.9301 -13.4697 -0.914331 -28.0689 -14.6426 -1.54746 -28.1531 -15.7667 -2.1192 
-21.1872 -3.79558 3.3577 -19.907 -2.41641 3.47186 -18.5474 -0.982957 3.62733 
-17.1874 0.372211 3.75945 -15.9123 1.4894 3.7728 -14.7726 2.28302 3.63554 
-13.7084 2.78744 3.33419 -12.6749 3.10378 2.91934 -11.7287 3.34191 2.48842 
-20.1075 -24.9905 -4.60533 -21.1808 -25.0253 -4.61655 -22.6462 -24.3839 -4.43079 
-24.1946 -23.4698 -4.1134 -25.4434 -22.5919 -3.84811 -26.3037 -21.5079 -3.62508 
-27.0501 -20.2151 -3.36286 -27.7159 -19.0264 -3.10581 -28.097 -17.9297 -2.87497 
-2.30799 -2.0549 0.157393 -2.33487 -0.997758 0.309878 -2.76572 -0.0811571 0.465833 
-3.54703 0.808343 0.619028 -4.5864 1.75377 0.786732 -5.86675 2.59787 1.05616 
-7.27424 3.21957 1.41644 -8.6247 3.57822 1.72386 -9.83847 3.65623 1.9232 
-12.4919 -1.5149 -3.0648 -12.4835 -2.11126 -3.27704 -13.813 -2.26812 -3.20195 
-12.574 -2.83956 -3.44721 -13.96 -2.97009 -3.38452 -15.3671 -3.27559 -3.28098 
-12.8294 -3.64257 -3.59656 -14.2225 -3.78383 -3.51296 -15.7328 -4.15854 -3.41088 
-17.1088 -4.7513 -3.26154 -13.323 -4.48813 -3.70548 -14.6938 -4.67791 -3.59199 
-16.255 -5.14574 -3.51043 -17.7008 -5.86973 -3.40527 -18.9171 -6.6092 -3.33463 
-13.9748 -5.40173 -3.70162 -15.3832 -5.70372 -3.61677 -16.9463 -6.3055 -3.55734 
-18.4151 -7.13042 -3.57128 -19.591 -7.94474 -3.59701 -20.5805 -8.53518 -3.69211 
-14.7119 -6.39218 -3.57611 -16.156 -6.89398 -3.58704 -17.6806 -7.69006 -3.60121 
-19.0888 -8.59543 -3.73161 -20.2126 -9.39946 -3.93223 -21.1083 -9.96344 -4.08977 
-21.8847 -10.3023 -4.2594 -15.5596 -7.40411 -3.38969 -16.9425 -8.15906 -3.51003 
-18.3263 -9.15665 -3.68378 -19.5609 -10.1329 -3.93453 -20.5651 -10.898 -4.27796 
-21.4049 -11.3939 -4.55057 -22.1376 -11.6769 -4.69894 -22.7678 -11.835 -4.82468 
-10.2196 -0.640103 -2.96348 -8.94375 -0.556374 -2.92775 -10.0575 -1.26962 -3.17042 
-7.60511 -0.603371 -2.81886 -8.74996 -1.31064 -3.11242 -10.0255 -2.05375 -3.35464 
-6.26928 -0.77084 -2.60862 -7.37452 -1.48319 -2.91979 -8.6808 -2.18463 -3.26777 
-10.1392 -2.88322 -3.569 -4.98509 -1.17218 -2.30242 -6.03226 -1.78661 -2.61688 
-7.30193 -2.44054 -3.01695 -8.79473 -3.06071 -3.47711 -10.4642 -3.76058 -3.75037 
-3.91144 -1.78313 -1.95975 -4.86093 -2.30418 -2.31021 -6.102 -2.85775 -2.69773 
-7.54759 -3.40088 -3.20962 -9.20101 -4.03202 -3.61953 -10.9707 -4.73474 -3.75755 
-3.26239 -2.41856 -1.56756 -4.04784 -2.94951 -2.00125 -5.19486 -3.44106 -2.39579 
-6.62101 -3.89455 -2.86478 -8.17077 -4.42194 -3.3298 -9.84133 -5.09459 -3.59848 
-11.6015 -5.69264 -3.64694 -3.01289 -3.04459 -1.07506 -3.67107 -3.57957 -1.59633 
-4.62741 -4.05517 -2.05019 -5.9553 -4.45135 -2.48568 -7.46273 -4.84129 -2.93623 
-8.99913 -5.42414 -3.32054 -10.6201 -6.04771 -3.53547 -12.3903 -6.49032 -3.52811 
-3.49689 -4.65144 -0.416521 -4.30197 -5.49242 -0.355963 -4.26032 -5.0881 -1.04309 
-5.41481 -6.17817 -0.308105 -5.22166 -5.90315 -1.03643 -5.2352 -5.45917 -1.61888 
-6.69568 -6.69418 -0.227054 -6.39115 -6.55887 -1.0067 -6.30392 -6.19314 -1.63564 
-6.491 -5.71683 -2.07723 -8.06849 -7.07747 -0.148272 -7.68637 -7.05883 -0.891276 
-7.54319 -6.8273 -1.60353 -7.66926 -6.42962 -2.07276 -7.99995 -6.01328 -2.4737 
[...]
POINT_DATA 1002
FIELD FieldData 4
_paraPhi 1 1002 double
6.2831853072 3.1415926536 6.2831853072 3.1415926536 4.7123889804 4.7123889804 1.5707963268 1.5707963268 3.6951670125 
5.7296109483 2.5880182947 0.5535743589 6.2831853072 6.2831853072 6.2831853072 6.2831853072 3.1415926536 3.1415926536 
3.1415926536 3.1415926536 3.1415926536 6.1053039672 5.898798347 5.6768734901 5.4599499503 5.2659633393 5.1032165617 
4.9713148346 4.8656852733 4.7809517865 0.17788134 0.38438696014 0.60631181711 0.82323535693 1.0172219679 1.1799687454 
1.3118704726 1.4175000338 1.5022335207 6.1892828907 6.1070320098 6.035312792 5.9728339911 5.9183214791 5.8706119594 
5.8286879411 5.7916808611 5.7588591896 0.093902416448 0.17615329733 0.2478725152 0.31035131605 0.36486382811 0.41257334776 
0.45449736604 0.4915044461 0.52432611754 3.3194739936 3.5259796137 3.7479044707 3.9648280105 4.1588146215 4.321561399 
4.4534631262 4.5590926874 4.6438261743 2.9637113136 2.7572056934 2.5352808365 2.3183572967 2.1243706857 1.9616239082 
1.829722181 1.7240926197 1.6393591329 3.23549507 3.3177459509 3.3894651688 3.4519439696 3.5064564817 3.5541660013 
3.5960900196 3.6330970997 3.6659187711 3.0476902371 2.9654393563 2.8937201384 2.8312413375 2.7767288255 2.7290193058 
2.6870952876 2.6500882075 2.617266536 6.2831853072 6.2831853072 6.2831853072 6.2831853072 3.1415926536 3.1415926536 
3.1415926536 3.1415926536 3.1415926536 6.1053039672 5.898798347 5.6768734901 5.4599499503 5.2659633393 5.1032165617 
4.9713148346 4.8656852733 4.7809517865 0.17788134 0.38438696014 0.60631181711 0.82323535693 1.0172219679 1.1799687454 
1.3118704726 1.4175000338 1.5022335207 6.1892828907 6.1070320098 6.035312792 5.9728339911 5.9183214791 5.8706119594 
5.8286879411 5.7916808611 5.7588591896 0.093902416448 0.17615329733 0.2478725152 0.31035131605 0.36486382811 0.41257334776 
0.45449736604 0.4915044461 0.52432611754 3.3194739936 3.5259796137 3.7479044707 3.9648280105 4.1588146215 4.321561399 
4.4534631262 4.5590926874 4.6438261743 2.9637113136 2.7572056934 2.5352808365 2.3183572967 2.1243706857 1.9616239082 
1.829722181 1.7240926197 1.6393591329 3.23549507 3.3177459509 3.3894651688 3.4519439696 3.5064564817 3.5541660013 
3.5960900196 3.6330970997 3.6659187711 3.0476902371 2.9654393563 2.8937201384 2.8312413375 2.7767288255 2.7290193058 
2.6870952876 2.6500882075 2.617266536 4.7123889804 4.7123889804 4.7123889804 4.7123889804 4.7123889804 4.7123889804 
4.7123889804 4.7123889804 4.7123889804 4.6087898617 4.4991390697 4.3857031936 4.2712800401 4.1588146215 4.0509635631 
3.94975894 3.8564636551 3.7716124825 4.8159880991 4.9256388911 5.0390747672 5.1534979207 5.2659633393 5.3738143976 
5.4750190208 5.5683143056 5.6531654782 4.6087898617 4.4991390697 4.3857031936 4.2712800401 4.1588146215 4.0509635631 
3.94975894 3.8564636551 3.7716124825 4.8159880991 4.9256388911 5.0390747672 5.1534979207 5.2659633393 5.3738143976 
5.4750190208 5.5683143056 5.6531654782 1.5707963268 1.5707963268 1.5707963268 1.5707963268 1.5707963268 1.5707963268 
1.5707963268 1.5707963268 1.5707963268 1.6743954455 1.7840462375 1.8974821136 2.0119052671 2.1243706857 2.232221744 
2.3334263672 2.426721652 2.5115728246 1.4671972081 1.3575464161 1.24411054 1.1296873865 1.0172219679 0.90937090954 
0.80816628637 0.71487100155 0.63001982895 1.6743954455 1.7840462375 1.8974821136 2.0119052671 2.1243706857 2.232221744 
2.3334263672 2.426721652 2.5115728246 1.4671972081 1.3575464161 1.24411054 1.1296873865 1.0172219679 0.90937090954 
0.80816628637 0.71487100155 0.63001982895 3.6007720849 3.4966939854 3.3839471039 3.2645756454 3.1415926536 3.0186096618 
2.8992382033 2.7864913217 2.6824132222 5.8240058758 5.9280839753 6.0408308569 6.1602023154 6.2831853072 0.12298299178 
0.2423544503 0.35510133185 0.45917943135 6.0560271438 5.7885595667 5.9702140275 5.5125918794 5.6029703303 5.7885595667 
5.2659633393 5.2659633393 5.2659633393 5.2659633393 5.0674903122 5.0120975802 4.9155579264 4.7123889804 4.1588146215 
4.9155579264 4.8353719722 4.7123889804 4.5092200343 4.1588146215 3.6362183941 4.8004512023 4.7123889804 4.5894059886 
4.4126803806 4.1588146215 3.8218076305 3.4545639333 4.7123889804 4.6243267584 4.5092200343 4.3572876485 4.1588146215 
3.9121860814 3.6362183941 3.368750817 6.0174235957 5.9434319871 5.8263323547 5.8809213739 5.7674481418 5.6279784266 
5.8278025282 5.718968232 5.5891129425 5.4372443565 5.7823484065 5.678536687 5.5575666702 5.4192596322 5.2659633393 
5.743164462 5.6444075337 5.5314983644 5.4046708639 5.2659633393 5.1195510325 5.7091357773 5.6152775188 5.5096229709 
5.3926039573 5.2659633393 5.1329233157 4.9978930058 5.6793730533 5.5901633916 5.4910209005 5.3824597928 5.2659633393 
5.1440684722 5.0201624502 4.8979782167 5.5683143056 5.4750190208 5.4750190208 5.3738143976 5.3738143976 5.3738143976 
5.2659633393 5.2659633393 5.2659633393 5.2659633393 5.1534979207 5.1534979207 5.1534979207 5.1534979207 5.1534979207 
5.0390747672 5.0390747672 5.0390747672 5.0390747672 5.0390747672 5.0390747672 4.9256388911 4.9256388911 4.9256388911 
4.9256388911 4.9256388911 4.9256388911 4.9256388911 4.8159880991 4.8159880991 4.8159880991 4.8159880991 4.8159880991 
4.8159880991 4.8159880991 4.8159880991 4.6087898617 4.6087898617 4.4991390697 4.6087898617 4.4991390697 4.3857031936 
4.6087898617 4.4991390697 4.3857031936 4.2712800401 4.6087898617 4.4991390697 4.3857031936 4.2712800401 4.1588146215 
4.6087898617 4.4991390697 4.3857031936 4.2712800401 4.1588146215 4.0509635631 4.6087898617 4.4991390697 4.3857031936 
4.2712800401 4.1588146215 4.0509635631 3.94975894 4.6087898617 4.4991390697 4.3857031936 4.2712800401 4.1588146215 
4.0509635631 3.94975894 3.8564636551 4.526799744 4.4046155105 4.426884955 4.2807094886 4.2918546451 4.3052269283 
4.1588146215 4.1588146215 4.1588146215 4.1588146215 4.042318168 4.0321740035 4.0201070968 4.0055183285 3.9875336042 
3.9337570603 3.9151549899 3.8932795963 3.8672112905 3.8356650183 3.7967995342 3.8346145692 3.809500442 3.7803704271 
3.7462412737 3.7058097288 3.657329819 3.5984456061 3.7454049075 3.7156421835 3.6816134988 3.6424295543 3.5969754326 
3.5438565869 3.4813459737 3.4073543651 3.5642842451 3.4524645613 3.5233842518 3.3320300872 3.403123212 3.4773852225 
3.20576226 3.2746326772 3.348015857 3.4255060145 3.0774230472 3.1415926536 3.2112816139 3.2864685043 3.3668817272 
2.95115522 3.00855263 3.0719036933 3.1415926536 3.2178377658 3.3005964304 2.8307207459 2.8800620952 2.9351694502 
2.9967168029 3.0653475414 3.1415926536 3.225752376 2.718901062 2.7598010554 2.8058000847 2.8576792927 2.91630358 
2.9825888767 3.0574329311 3.1415926536 3.5642842451 3.5233842518 3.4524645613 3.4773852225 3.403123212 3.3320300872 
3.4255060145 3.348015857 3.2746326772 3.20576226 3.3668817272 3.2864685043 3.2112816139 3.1415926536 3.0774230472 
3.3005964304 3.2178377658 3.1415926536 3.0719036933 3.00855263 2.95115522 3.225752376 3.1415926536 3.0653475414 
2.9967168029 2.9351694502 2.8800620952 2.8307207459 3.1415926536 3.0574329311 2.9825888767 2.91630358 2.8576792927 
2.8058000847 2.7598010554 2.718901062 4.526799744 4.426884955 4.4046155105 4.3052269283 4.2918546451 4.2807094886 
4.1588146215 4.1588146215 4.1588146215 4.1588146215 3.9875336042 4.0055183285 4.0201070968 4.0321740035 4.042318168 
3.7967995342 3.8356650183 3.8672112905 3.8932795963 3.9151549899 3.9337570603 3.5984456061 3.657329819 3.7058097288 
3.7462412737 3.7803704271 3.809500442 3.8346145692 3.4073543651 3.4813459737 3.5438565869 3.5969754326 3.6424295543 
3.6816134988 3.7156421835 3.7454049075 4.7123889804 4.8004512023 4.6243267584 4.9155579264 4.7123889804 4.5092200343 
5.0674903122 4.8353719722 4.5894059886 4.3572876485 5.2659633393 5.0120975802 4.7123889804 4.4126803806 4.1588146215 
5.5125918794 5.2659633393 4.9155579264 4.5092200343 4.1588146215 3.9121860814 5.7885595667 5.6029703303 5.2659633393 
4.7123889804 4.1588146215 3.8218076305 3.6362183941 6.0560271438 5.9702140275 5.7885595667 5.2659633393 4.1588146215 
3.6362183941 3.4545639333 3.368750817 0.22715816343 0.49462574053 0.3129712797 0.77059342779 0.68021497688 0.49462574053 
1.0172219679 1.0172219679 1.0172219679 1.0172219679 1.2156949949 1.271087727 1.3676273807 1.5707963268 2.1243706857 
1.3676273807 1.447813335 1.5707963268 1.7739652728 2.1243706857 2.6469669131 1.4827341049 1.5707963268 1.6937793186 
1.8705049266 2.1243706857 2.4613776767 2.8286213739 1.5707963268 1.6588585487 1.7739652728 1.9258976586 2.1243706857 
2.3709992258 2.6469669131 2.9144344902 1.7563855631 1.8785697967 1.8563003522 2.0024758186 1.9913306621 1.9779583789 
2.1243706857 2.1243706857 2.1243706857 2.1243706857 2.2408671392 2.2510113037 2.2630782103 2.2776669786 2.295651703 
2.3494282469 2.3680303173 2.3899057108 2.4159740166 2.4475202889 2.486385773 2.448570738 2.4736848652 2.5028148801 
2.5369440334 2.5773755784 2.6258554882 2.6847397011 2.5377803997 2.5675431237 2.6015718084 2.6407557529 2.6862098746 
2.7393287203 2.8018393335 2.8758309421 1.6743954455 1.6743954455 1.7840462375 1.6743954455 1.7840462375 1.8974821136 
1.6743954455 1.7840462375 1.8974821136 2.0119052671 1.6743954455 1.7840462375 1.8974821136 2.0119052671 2.1243706857 
1.6743954455 1.7840462375 1.8974821136 2.0119052671 2.1243706857 2.232221744 1.6743954455 1.7840462375 1.8974821136 
2.0119052671 2.1243706857 2.232221744 2.3334263672 1.6743954455 1.7840462375 1.8974821136 2.0119052671 2.1243706857 
2.232221744 2.3334263672 2.426721652 1.4671972081 1.3575464161 1.4671972081 1.24411054 1.3575464161 1.4671972081 
1.1296873865 1.24411054 1.3575464161 1.4671972081 1.0172219679 1.1296873865 1.24411054 1.3575464161 1.4671972081 
0.90937090954 1.0172219679 1.1296873865 1.24411054 1.3575464161 1.4671972081 0.80816628637 0.90937090954 1.0172219679 
1.1296873865 1.24411054 1.3575464161 1.4671972081 0.71487100155 0.80816628637 0.90937090954 1.0172219679 1.1296873865 
1.24411054 1.3575464161 1.4671972081 0.60381225391 0.57404952988 0.69302191562 0.54002084522 0.66790778838 0.79216440667 
0.50083690068 0.63877777351 0.77356233629 0.90072551443 0.45538277901 0.60464862014 0.75168694275 0.89058134991 1.0172219679 
0.40226393329 0.56421707518 0.72561863695 0.87851444325 1.0172219679 1.139116835 0.33975332011 0.51573716537 0.69407236469 
0.86392567495 1.0172219679 1.1502619915 1.2630228569 0.26576171152 0.45685295248 0.6552068806 0.84594095064 1.0172219679 
1.1636342747 1.2852923014 1.3852070904 0.22715816343 0.3129712797 0.49462574053 0.49462574053 0.68021497688 0.77059342779 
1.0172219679 1.0172219679 1.0172219679 1.0172219679 2.1243706857 1.5707963268 1.3676273807 1.271087727 1.2156949949 
2.6469669131 2.1243706857 1.7739652728 1.5707963268 1.447813335 1.3676273807 2.8286213739 2.4613776767 2.1243706857 
1.8705049266 1.6937793186 1.5707963268 1.4827341049 2.9144344902 2.6469669131 2.3709992258 2.1243706857 1.9258976586 
1.7739652728 1.6588585487 1.5707963268 1.7563855631 1.8563003522 1.8785697967 1.9779583789 1.9913306621 2.0024758186 
2.1243706857 2.1243706857 2.1243706857 2.1243706857 2.295651703 2.2776669786 2.2630782103 2.2510113037 2.2408671392 
2.486385773 2.4475202889 2.4159740166 2.3899057108 2.3680303173 2.3494282469 2.6847397011 2.6258554882 2.5773755784 
2.5369440334 2.5028148801 2.4736848652 2.448570738 2.8758309421 2.8018393335 2.7393287203 2.6862098746 2.6407557529 
2.6015718084 2.5675431237 2.5377803997 5.8604937156 5.901393709 5.9723133995 5.9473927383 6.0216547488 6.0927478736 
5.9992719463 6.0767621038 6.1501452836 6.2190157008 6.0578962336 6.1383094565 6.2134963469 0 0.064169606361 
6.1241815303 6.206940195 6.2831853072 0.069688960264 0.13304002361 0.19043743361 6.1990255847 0 0.07624511221 
0.14487585072 0.20642320337 0.26153055843 0.3108719077 0 0.084159722458 0.15900377685 0.22528907359 0.28391336087 
0.3357925689 0.38179159818 0.42269159155 5.8604937156 5.9723133995 5.901393709 6.0927478736 6.0216547488 5.9473927383 
6.2190157008 6.1501452836 6.0767621038 5.9992719463 0.064169606361 0 6.2134963469 6.1383094565 6.0578962336 
0.19043743361 0.13304002361 0.069688960264 6.2831853072 6.206940195 6.1241815303 0.3108719077 0.26153055843 0.20642320337 
0.14487585072 0.07624511221 6.2831853072 6.1990255847 0.42269159155 0.38179159818 0.3357925689 0.28391336087 0.22528907359 
0.15900377685 0.084159722458 0 5.6793730533 5.7091357773 5.5901633916 5.743164462 5.6152775188 5.4910209005 
5.7823484065 5.6444075337 5.5096229709 5.3824597928 5.8278025282 5.678536687 5.5314983644 5.3926039573 5.2659633393 
5.8809213739 5.718968232 5.5575666702 5.4046708639 5.2659633393 5.1440684722 5.9434319871 5.7674481418 5.5891129425 
5.4192596322 5.2659633393 5.1329233157 5.0201624502 6.0174235957 5.8263323547 5.6279784266 5.4372443565 5.2659633393 
5.1195510325 4.9978930058 4.8979782167 1.3852070904 1.2852923014 1.2630228569 1.1636342747 1.1502619915 1.139116835 
1.0172219679 1.0172219679 1.0172219679 1.0172219679 0.84594095064 0.86392567495 0.87851444325 0.89058134991 0.90072551443 
0.6552068806 0.69407236469 0.72561863695 0.75168694275 0.77356233629 0.79216440667 0.45685295248 0.51573716537 0.56421707518 
0.60464862014 0.63877777351 0.66790778838 0.69302191562 0.26576171152 0.33975332011 0.40226393329 0.45538277901 0.50083690068 
0.54002084522 0.57404952988 0.60381225391 
_paraPhiHalf 1 1002 double
0 3.1415926536 0 3.1415926536 1.5707963268 1.5707963268 1.5707963268 1.5707963268 2.5880182947 
0.5535743589 2.5880182947 0.5535743589 0 0 0 0 3.1415926536 3.1415926536 
3.1415926536 3.1415926536 3.1415926536 0.17788134 0.38438696014 0.60631181711 0.82323535693 1.0172219679 1.1799687454 
1.3118704726 1.4175000338 1.5022335207 0.17788134 0.38438696014 0.60631181711 0.82323535693 1.0172219679 1.1799687454 
1.3118704726 1.4175000338 1.5022335207 0.093902416448 0.17615329733 0.2478725152 0.31035131605 0.36486382811 0.41257334776 
0.45449736604 0.4915044461 0.52432611754 0.093902416448 0.17615329733 0.2478725152 0.31035131605 0.36486382811 0.41257334776 
0.45449736604 0.4915044461 0.52432611754 2.9637113136 2.7572056934 2.5352808365 2.3183572967 2.1243706857 1.9616239082 
1.829722181 1.7240926197 1.6393591329 2.9637113136 2.7572056934 2.5352808365 2.3183572967 2.1243706857 1.9616239082 
1.829722181 1.7240926197 1.6393591329 3.0476902371 2.9654393563 2.8937201384 2.8312413375 2.7767288255 2.7290193058 
2.6870952876 2.6500882075 2.617266536 3.0476902371 2.9654393563 2.8937201384 2.8312413375 2.7767288255 2.7290193058 
2.6870952876 2.6500882075 2.617266536 0 0 0 0 3.1415926536 3.1415926536 
3.1415926536 3.1415926536 3.1415926536 0.17788134 0.38438696014 0.60631181711 0.82323535693 1.0172219679 1.1799687454 
1.3118704726 1.4175000338 1.5022335207 0.17788134 0.38438696014 0.60631181711 0.82323535693 1.0172219679 1.1799687454 
1.3118704726 1.4175000338 1.5022335207 0.093902416448 0.17615329733 0.2478725152 0.31035131605 0.36486382811 0.41257334776 
0.45449736604 0.4915044461 0.52432611754 0.093902416448 0.17615329733 0.2478725152 0.31035131605 0.36486382811 0.41257334776 
0.45449736604 0.4915044461 0.52432611754 2.9637113136 2.7572056934 2.5352808365 2.3183572967 2.1243706857 1.9616239082 
1.829722181 1.7240926197 1.6393591329 2.9637113136 2.7572056934 2.5352808365 2.3183572967 2.1243706857 1.9616239082 
1.829722181 1.7240926197 1.6393591329 3.0476902371 2.9654393563 2.8937201384 2.8312413375 2.7767288255 2.7290193058 
2.6870952876 2.6500882075 2.617266536 3.0476902371 2.9654393563 2.8937201384 2.8312413375 2.7767288255 2.7290193058 
2.6870952876 2.6500882075 2.617266536 1.5707963268 1.5707963268 1.5707963268 1.5707963268 1.5707963268 1.5707963268 
1.5707963268 1.5707963268 1.5707963268 1.6743954455 1.7840462375 1.8974821136 2.0119052671 2.1243706857 2.232221744 
2.3334263672 2.426721652 2.5115728246 1.4671972081 1.3575464161 1.24411054 1.1296873865 1.0172219679 0.90937090954 
0.80816628637 0.71487100155 0.63001982895 1.6743954455 1.7840462375 1.8974821136 2.0119052671 2.1243706857 2.232221744 
2.3334263672 2.426721652 2.5115728246 1.4671972081 1.3575464161 1.24411054 1.1296873865 1.0172219679 0.90937090954 
0.80816628637 0.71487100155 0.63001982895 1.5707963268 1.5707963268 1.5707963268 1.5707963268 1.5707963268 1.5707963268 
1.5707963268 1.5707963268 1.5707963268 1.6743954455 1.7840462375 1.8974821136 2.0119052671 2.1243706857 2.232221744 
2.3334263672 2.426721652 2.5115728246 1.4671972081 1.3575464161 1.24411054 1.1296873865 1.0172219679 0.90937090954 
0.80816628637 0.71487100155 0.63001982895 1.6743954455 1.7840462375 1.8974821136 2.0119052671 2.1243706857 2.232221744 
2.3334263672 2.426721652 2.5115728246 1.4671972081 1.3575464161 1.24411054 1.1296873865 1.0172219679 0.90937090954 
0.80816628637 0.71487100155 0.63001982895 2.6824132222 2.7864913217 2.8992382033 3.0186096618 3.1415926536 3.0186096618 
2.8992382033 2.7864913217 2.6824132222 0.45917943135 0.35510133185 0.2423544503 0.12298299178 0 0.12298299178 
0.2423544503 0.35510133185 0.45917943135 0.22715816343 0.49462574053 0.3129712797 0.77059342779 0.68021497688 0.49462574053 
1.0172219679 1.0172219679 1.0172219679 1.0172219679 1.2156949949 1.271087727 1.3676273807 1.5707963268 2.1243706857 
1.3676273807 1.447813335 1.5707963268 1.7739652728 2.1243706857 2.6469669131 1.4827341049 1.5707963268 1.6937793186 
1.8705049266 2.1243706857 2.4613776767 2.8286213739 1.5707963268 1.6588585487 1.7739652728 1.9258976586 2.1243706857 
2.3709992258 2.6469669131 2.9144344902 0.26576171152 0.33975332011 0.45685295248 0.40226393329 0.51573716537 0.6552068806 
0.45538277901 0.56421707518 0.69407236469 0.84594095064 0.50083690068 0.60464862014 0.72561863695 0.86392567495 1.0172219679 
0.54002084522 0.63877777351 0.75168694275 0.87851444325 1.0172219679 1.1636342747 0.57404952988 0.66790778838 0.77356233629 
0.89058134991 1.0172219679 1.1502619915 1.2852923014 0.60381225391 0.69302191562 0.79216440667 0.90072551443 1.0172219679 
1.139116835 1.2630228569 1.3852070904 0.71487100155 0.80816628637 0.80816628637 0.90937090954 0.90937090954 0.90937090954 
1.0172219679 1.0172219679 1.0172219679 1.0172219679 1.1296873865 1.1296873865 1.1296873865 1.1296873865 1.1296873865 
1.24411054 1.24411054 1.24411054 1.24411054 1.24411054 1.24411054 1.3575464161 1.3575464161 1.3575464161 
1.3575464161 1.3575464161 1.3575464161 1.3575464161 1.4671972081 1.4671972081 1.4671972081 1.4671972081 1.4671972081 
1.4671972081 1.4671972081 1.4671972081 1.6743954455 1.6743954455 1.7840462375 1.6743954455 1.7840462375 1.8974821136 
1.6743954455 1.7840462375 1.8974821136 2.0119052671 1.6743954455 1.7840462375 1.8974821136 2.0119052671 2.1243706857 
1.6743954455 1.7840462375 1.8974821136 2.0119052671 2.1243706857 2.232221744 1.6743954455 1.7840462375 1.8974821136 
2.0119052671 2.1243706857 2.232221744 2.3334263672 1.6743954455 1.7840462375 1.8974821136 2.0119052671 2.1243706857 
2.232221744 2.3334263672 2.426721652 1.7563855631 1.8785697967 1.8563003522 2.0024758186 1.9913306621 1.9779583789 
2.1243706857 2.1243706857 2.1243706857 2.1243706857 2.2408671392 2.2510113037 2.2630782103 2.2776669786 2.295651703 
2.3494282469 2.3680303173 2.3899057108 2.4159740166 2.4475202889 2.486385773 2.448570738 2.4736848652 2.5028148801 
2.5369440334 2.5773755784 2.6258554882 2.6847397011 2.5377803997 2.5675431237 2.6015718084 2.6407557529 2.6862098746 
2.7393287203 2.8018393335 2.8758309421 2.718901062 2.8307207459 2.7598010554 2.95115522 2.8800620952 2.8058000847 
3.0774230472 3.00855263 2.9351694502 2.8576792927 3.0774230472 3.1415926536 3.0719036933 2.9967168029 2.91630358 
2.95115522 3.00855263 3.0719036933 3.1415926536 3.0653475414 2.9825888767 2.8307207459 2.8800620952 2.9351694502 
2.9967168029 3.0653475414 3.1415926536 3.0574329311 2.718901062 2.7598010554 2.8058000847 2.8576792927 2.91630358 
2.9825888767 3.0574329311 3.1415926536 2.718901062 2.7598010554 2.8307207459 2.8058000847 2.8800620952 2.95115522 
2.8576792927 2.9351694502 3.00855263 3.0774230472 2.91630358 2.9967168029 3.0719036933 3.1415926536 3.0774230472 
2.9825888767 3.0653475414 3.1415926536 3.0719036933 3.00855263 2.95115522 3.0574329311 3.1415926536 3.0653475414 