# vtk DataFile Version 5.1
vtk output
ASCII
DATASET POLYDATA
POINTS 100 float
-4.6993 3.57757 1.7483 -4.70755 3.57409 1.74126 -4.73185 3.56177 1.7247 
-4.77123 3.53965 1.70105 -4.82415 3.50627 1.6739 -4.88868 3.45984 1.64732 
-4.96278 3.39844 1.62517 -5.04444 3.32032 1.61045 -5.13199 3.22408 1.60483 
-5.22416 3.10893 1.60847 -5.32026 2.97482 1.62004 -5.42017 2.82252 1.63713 
-5.52427 2.65358 1.65672 -5.63335 2.47015 1.67581 -5.74844 2.27477 1.69192 
-5.87064 2.07007 1.70354 -6.00091 1.85843 1.71024 -6.13999 1.64173 1.71261 
-6.28828 1.42118 1.71201 -6.44583 1.19718 1.71014 -6.61237 0.969459 1.70855 
-6.7874 0.737209 1.70833 -6.97032 0.499374 1.70979 -7.16053 0.254948 1.71245 
-7.35754 0.00324079 1.71517 -7.56104 -0.255931 1.71643 -7.77095 -0.522192 1.71468 
-7.98731 -0.794692 1.7087 -8.21025 -1.07231 1.69785 -8.43989 -1.35395 1.68217 
-8.67615 -1.63883 1.66237 -8.91873 -1.92673 1.63956 -9.16698 -2.21811 1.61501 
-9.41997 -2.51411 1.58981 -9.67651 -2.81632 1.56462 -9.93531 -3.1265 1.53952 
-10.1951 -3.44617 1.51403 -10.455 -3.77631 1.48725 -10.7142 -4.11705 1.45813 
-10.9729 -4.46767 1.42571 -11.2314 -4.82666 1.38942 -11.4908 -5.1921 1.34918 
-11.7522 -5.5621 1.30542 -12.0171 -5.93531 1.25892 -12.2865 -6.31139 1.21055 
-12.561 -6.69127 1.1609 -12.8401 -7.07721 1.11 -13.1225 -7.47252 1.05709 
-13.4057 -7.88113 1.00055 -13.686 -8.30687 0.93804 -13.959 -8.75277 0.866789 
-14.2196 -9.22036 0.784016 -14.4627 -9.70928 0.687388 -14.6836 -10.2171 0.575438 
-14.8784 -10.7394 0.447859 -15.0443 -11.2707 0.305601 -15.1801 -11.8046 0.150784 
-15.2859 -12.3351 -0.0135871 -15.3634 -12.8573 -0.184027 -15.4154 -13.3679 -0.357021 
-15.4455 -13.8655 -0.529431 -15.4577 -14.3508 -0.698796 -15.456 -14.8259 -0.863462 
-15.4436 -15.2938 -1.02255 -15.4231 -15.7576 -1.17576 -15.396 -16.2199 -1.32313 
-15.3627 -16.6822 -1.46473 -15.3229 -17.1442 -1.60045 -15.2755 -17.6047 -1.72989 
-15.2191 -18.061 -1.85235 -15.1524 -18.5103 -1.96702 -15.0747 -18.9496 -2.07314 
-14.9858 -19.3771 -2.1703 -14.8866 -19.7915 -2.25857 -14.779 -20.1932 -2.33858 
-14.6655 -20.5834 -2.4115 -14.5497 -20.9639 -2.47881 -14.4352 -21.3362 -2.54204 
-14.326 -21.7014 -2.60244 -14.2256 -22.0593 -2.66071 -14.1372 -22.4081 -2.71688 
-14.063 -22.7449 -2.77024 -14.0045 -23.0657 -2.81956 -13.9622 -23.3663 -2.8634 
-13.9357 -23.6427 -2.90041 -13.9238 -23.8923 -2.92978 -13.9248 -24.1142 -2.95151 
-13.9367 -24.3093 -2.96649 -13.9572 -24.4803 -2.97645 -13.9838 -24.6312 -2.98371 
-14.0143 -24.7666 -2.99077 -14.0468 -24.8905 -2.99982 -14.0793 -25.0059 -3.01232 
-14.1104 -25.1143 -3.02871 -14.1387 -25.2149 -3.04827 -14.1631 -25.3055 -3.06926 
-14.183 -25.3823 -3.08923 -14.1976 -25.4411 -3.10548 -14.2064 -25.4783 -3.11561 
-14.2094 -25.4911 -3.11796 
LINES 2 100
OFFSETS vtktypeint64
0 100 
CONNECTIVITY vtktypeint64
0 1 2 3 4 5 6 7 8 
9 10 11 12 13 14 15 16 17 
18 19 20 21 22 23 24 25 26 
27 28 29 30 31 32 33 34 35 
36 37 38 39 40 41 42 43 44 
45 46 47 48 49 50 51 52 53 
54 55 56 57 58 59 60 61 62 
63 64 65 66 67 68 69 70 71 
72 73 74 75 76 77 78 79 80 
81 82 83 84 85 86 87 88 89 
90 91 92 93 94 95 96 97 98 
99 
POINT_DATA 100
FIELD FieldData 3
_theta 1 100 double
0 0.031733259127 0.063466518254 0.095199777382 0.12693303651 0.15866629564 0.19039955476 0.22213281389 0.25386607302 
0.28559933214 0.31733259127 0.3490658504 0.38079910953 0.41253236865 0.44426562778 0.47599888691 0.50773214603 0.53946540516 
0.57119866429 0.60293192342 0.63466518254 0.66639844167 0.6981317008 0.72986495992 0.76159821905 0.79333147818 0.82506473731 
0.85679799643 0.88853125556 0.92026451469 0.95199777382 0.98373103294 1.0154642921 1.0471975512 1.0789308103 1.1106640695 
1.1423973286 1.1741305877 1.2058638468 1.237597106 1.2693303651 1.3010636242 1.3327968833 1.3645301425 1.3962634016 
1.4279966607 1.4597299198 1.491463179 1.5231964381 1.5549296972 1.5866629564 1.6183962155 1.6501294746 1.6818627337 
1.7135959929 1.745329252 1.7770625111 1.8087957702 1.8405290294 1.8722622885 1.9039955476 1.9357288068 1.9674620659 
1.999195325 2.0309285841 2.0626618433 2.0943951024 2.1261283615 2.1578616206 2.1895948798 2.2213281389 2.253061398 
2.2847946572 2.3165279163 2.3482611754 2.3799944345 2.4117276937 2.4434609528 2.4751942119 2.506927471 2.5386607302 
2.5703939893 2.6021272484 2.6338605076 2.6655937667 2.6973270258 2.7290602849 2.7607935441 2.7925268032 2.8242600623 
2.8559933214 2.8877265806 2.9194598397 2.9511930988 2.982926358 3.0146596171 3.0463928762 3.0781261353 3.1098593945 
3.1415926536 
_radius 1 100 double
8.828891108e-15 0.30908650417 0.61607359512 0.91877588355 1.2151027245 1.5031261496 1.7811516797 2.0477859738 2.3019969098 
2.5431608391 2.7710861511 2.9859966587 3.1884613731 3.3792729178 3.5592981311 3.7293375169 3.8900259619 4.0417886094 
4.1848449689 4.3192422255 4.4448981547 4.5616404684 4.6692365711 4.7674125577 4.8558637732 4.9342635418 5.0022818278 
5.0596281245 5.1061277758 5.1418263834 5.1670978069 5.1827174479 5.1898627744 5.1900192789 5.184795957 5.1756789981 
5.1637664481 5.1495282032 5.1326308859 5.1118638038 5.0852012447 5.050029075 5.0035392853 4.9432543964 4.867598806 
4.7764067644 4.6712601189 4.5555825838 4.4344687333 4.31427815 4.2020616388 4.1048929628 4.0291529703 3.9797846207 
3.9595711473 3.9685969754 4.0041141215 4.0609284403 4.1322116976 4.2105225198 4.2888209542 4.3613096874 4.4239932797 
4.4749096931 4.5140401913 4.5429366889 4.5641312535 4.5804248547 4.5941889245 4.6068298922 4.6185355326 4.6283392944 
4.6344382103 4.6346305454 4.6267298711 4.6088555956 4.5795651874 4.5378481368 4.4830280105 4.4146172285 4.3321542868 
4.2350440038 4.1224280576 3.9931288708 3.8457152196 3.6787156059 3.4909561744 3.2819456422 3.0521996565 2.8034078548 
2.5383923647 2.2608640683 1.9750291813 1.6851205641 1.394926782 1.1073795109 0.8242502847 0.5460040588 0.27184935185 
3.8049736057e-14 
_area 1 100 double
0 0.25150413127 1.0031923896 2.2442507527 3.9505202768 6.0798916511 8.5718412575 11.352421182 14.343631592 
17.47438708 20.689685166 23.955219686 27.256388202 30.592790309 33.970786529 37.396580447 40.870899972 44.385070072 
47.918179778 51.435882616 54.891899703 58.232671911 61.404154697 64.358490464 67.058105441 69.475964605 71.592876903 
73.394743255 74.872932863 76.028696109 76.87895227 77.458913248 77.818764679 78.015858324 78.106655671 78.140834789 
78.155688349 78.167542422 78.160278571 78.076230071 77.817125696 77.259766543 76.284380807 74.80713411 72.805459917 
70.327413649 67.483387722 64.42621896 61.328625915 58.363809425 55.690533118 53.442182959 51.71966132 50.586388125 
50.061627024 50.113691708 50.65925052 51.572995888 52.710043215 53.934108591 55.130173388 56.195649392 57.038232078 
57.596652955 57.865593467 57.90392413 57.818036518 57.722343117 57.691558044 57.729613131 57.772651915 57.719998666 
57.472477896 56.961398147 56.160787321 55.082596726 53.760434278 52.231260078 50.523474602 48.653708979 46.628506772 
44.446122527 42.096835867 39.563392648 36.824384413 33.862310856 30.675269793 27.288351948 23.759839102 20.178921002 
16.654986464 13.301859994 10.222026319 7.4952734445 5.1738928971 3.2840129139 1.8311179462 0.80762956258 0.20086367485 
1.2667859384e-13 
