# vtk DataFile Version 5.1
vtk output
ASCII
DATASET POLYDATA
POINTS 1002 float
-9.78182 0.502438 -2.3924 -17.1281 -13.6606 -6.46644 -8.51545 -2.8992 3.55538 
-16.0935 -14.9999 -1.36201 -10.9376 -7.00093 -3.66306 -10.0719 -7.91767 -0.466288 
-17.8817 -4.69673 -1.784 -17.9344 -6.29112 2.06141 -11.1003 -22.9315 -7.26357 
-0.773529 0.237114 0.114336 -20.4975 -18.317 -4.63663 -10.3751 3.7754 2.52889 
-10.5161 -0.329003 -2.59853 -11.4304 -1.34858 -2.85036 -12.5193 -2.5765 -3.17676 
-13.6335 -4.08076 -3.5268 -14.6625 -5.88277 -3.9055 -15.5921 -7.79283 -4.42005 
-16.3095 -9.5627 -5.03328 -16.7305 -11.1109 -5.59579 -16.9655 -12.4653 -6.06708 
-9.442 0.180326 -2.59699 -9.09756 -0.276891 -2.76669 -8.8074 -0.850958 -2.94528 
-8.65679 -1.50663 -3.17183 -8.65814 -2.23449 -3.3973 -8.78943 -3.05969 -3.53585 
-9.11789 -4.01953 -3.58562 -9.67057 -5.0664 -3.61521 -10.3224 -6.07749 -3.64917 
-10.5588 0.26181 -2.28065 -11.4085 -0.0714428 -2.15187 -12.3257 -0.489589 -2.03068 
-13.2853 -0.955751 -1.95853 -14.272 -1.46942 -1.95234 -15.222 -2.07522 -1.94632 
-16.0285 -2.75187 -1.89097 -16.696 -3.43033 -1.83391 -17.3085 -4.08216 -1.80753 
-8.84048 1.08004 -2.31502 -7.74202 1.6186 -2.2009 -6.49819 2.03576 -2.04618 
-5.20106 2.24404 -1.83784 -3.97214 2.27395 -1.5932 -2.87155 2.20826 -1.36464 
-1.93176 1.99247 -1.10673 -1.24911 1.54389 -0.74141 -0.884736 0.917151 -0.308105 
-9.58459 1.11585 -2.09096 -9.4147 1.73351 -1.72883 -9.30422 2.35612 -1.33383 
-9.29115 2.93051 -0.89261 -9.38078 3.42259 -0.409746 -9.56321 3.80629 0.0864854 
-9.80521 4.03018 0.662593 -10.0384 4.08715 1.35315 -10.2229 3.99626 2.01952 
-16.6206 -13.5539 -6.52457 -16.0745 -13.3901 -6.50329 -15.5303 -13.1543 -6.34467 
-14.9851 -12.8007 -6.09265 -14.4377 -12.3201 -5.801 -13.9807 -11.6971 -5.38246 
-13.5947 -10.7836 -4.80128 -13.0086 -9.50381 -4.24192 -12.0648 -8.1169 -3.87159 
-17.5094 -12.9925 -6.13707 -17.8629 -12.1995 -5.75989 -18.1791 -11.2648 -5.34202 
-18.4233 -10.2277 -4.87288 -18.5511 -9.1521 -4.36319 -18.5338 -8.10274 -3.8121 
-18.3943 -7.12462 -3.22983 -18.2108 -6.225 -2.6894 -18.04 -5.40977 -2.22193 
-16.8967 -14.8197 -6.85551 -16.487 -16.1427 -7.18972 -15.8979 -17.5318 -7.5024 
-15.2002 -18.8434 -7.83252 -14.4464 -20.0598 -8.15852 -13.6484 -21.1799 -8.48302 
-12.8146 -22.0709 -8.71997 -12.003 -22.6293 -8.60621 -11.3791 -22.8899 -8.0457 
-17.5127 -14.4069 -6.64313 -17.8747 -15.1411 -6.77437 -18.1992 -15.8713 -6.78635 
-18.5527 -16.6255 -6.70398 -18.9631 -17.3256 -6.59078 -19.3538 -17.8228 -6.38888 
-19.6862 -18.1215 -6.06155 -19.9971 -18.3258 -5.65861 -20.2863 -18.418 -5.18229 
-9.33652 -3.64146 3.41888 -10.2399 -4.53429 3.22905 -11.2625 -5.60981 2.93153 
-12.3982 -6.82157 2.43905 -13.5143 -8.13925 1.78479 -14.4584 -9.55838 1.06529 
-15.1612 -11.0246 0.332586 -15.624 -12.4639 -0.338429 -15.9095 -13.809 -0.893682 
-8.34801 -3.24688 3.25617 -8.17709 -3.68466 2.95196 -8.06846 -4.20439 2.62698 
-8.09608 -4.75416 2.22298 -8.21963 -5.33968 1.79844 -8.40384 -5.95 1.39304 
-8.70714 -6.49511 0.913539 -9.13193 -6.96079 0.382568 -9.60239 -7.42298 -0.0779152 
-9.24288 -3.04831 3.74125 -10.1753 -3.27801 3.84066 -11.3108 -3.58987 3.85878 
-12.5414 -3.98982 3.84569 -13.7767 -4.43197 3.76615 -14.9268 -4.81522 3.5357 
-15.861 -5.1294 3.17999 -16.6004 -5.47274 2.791 -17.2834 -5.88045 2.41584 
-7.59956 -2.40408 3.45052 -6.62873 -1.88922 3.24806 -5.60719 -1.35602 2.97381 
-4.5446 -0.879616 2.70551 -3.49461 -0.526865 2.43964 -2.55116 -0.275061 2.11005 
-1.79177 -0.0793721 1.72695 -1.24139 0.0659828 1.28151 -0.899711 0.164284 0.724741 
-8.13119 -2.19772 3.76312 -7.79458 -1.30767 3.86121 -7.60524 -0.265059 3.85052 
-7.60776 0.807606 3.83949 -7.81209 1.79492 3.83987 -8.21965 2.58714 3.70237 
-8.75558 3.13332 3.4076 -9.31904 3.48865 3.10868 -9.86737 3.70131 2.84696 
-15.6305 -14.7395 -1.36247 -15.203 -14.3306 -1.39987 -14.7882 -13.7566 -1.43207 
-14.2954 -13.0681 -1.35634 -13.703 -12.3051 -1.15325 -13.0883 -11.4087 -0.937381 
-12.47 -10.3756 -0.77648 -11.7744 -9.36414 -0.636321 -10.9597 -8.53071 -0.51775 
-16.4822 -14.4621 -1.09129 -16.8656 -13.8176 -0.75679 -17.2248 -13.0998 -0.327819 
-17.595 -12.2996 0.120338 -17.9588 -11.3803 0.523042 -18.207 -10.3806 0.911874 
-18.2862 -9.34584 1.2733 -18.2409 -8.28348 1.5696 -18.1157 -7.24471 1.82882 
-15.9194 -16.0122 -1.83504 -15.6705 -17.0914 -2.39142 -15.3291 -18.2102 -2.98281 
-14.8511 -19.3382 -3.54604 -14.2183 -20.4934 -4.07871 -13.5133 -21.5965 -4.57912 
-12.8105 -22.4288 -5.07169 -12.1029 -22.8918 -5.68981 -11.4723 -23.0397 -6.47944 
-16.4977 -15.8024 -1.6522 -16.9354 -16.5832 -1.92705 -17.4198 -17.3098 -2.15162 
-17.9974 -17.9243 -2.40249 -18.6112 -18.3755 -2.7576 -19.1422 -18.6579 -3.13087 
-19.6063 -18.7931 -3.46417 -20.03 -18.7938 -3.83071 -20.3365 -18.6416 -4.2445 
-10.6176 -6.98857 -3.50673 -10.3382 -7.00417 -3.26398 -10.0686 -7.10348 -3.00944 
-9.80917 -7.28314 -2.75425 -9.60715 -7.47655 -2.43064 -9.47701 -7.64812 -2.02685 
-9.44273 -7.79762 -1.57313 -9.55784 -7.89399 -1.11484 -9.7979 -7.92009 -0.73541 
-12.1144 -8.77748 -3.87392 -12.8495 -11.1074 -4.38667 -12.9177 -13.4445 -5.1805 
-12.5156 -15.2947 -6.0129 -12.09 -16.9246 -6.62846 -11.7955 -18.7127 -7.00143 
-11.439 -20.3743 -7.27078 -11.0276 -21.5835 -7.47391 -10.8606 -22.3987 -7.49555 
-9.35498 -5.81991 -3.54384 -7.86745 -5.06921 -3.35554 -6.66772 -4.26461 -2.93641 
-5.487 -3.27623 -2.43186 -4.18049 -2.50804 -2.0455 -2.97831 -1.94764 -1.71547 
-2.00335 -1.33689 -1.34573 -1.26948 -0.774505 -0.931564 -0.857666 -0.292582 -0.44052 
-11.114 -8.9243 -0.943171 -12.04 -10.4183 -1.6404 -12.591 -12.4277 -2.50161 
-12.6858 -14.6779 -3.37863 -12.4626 -16.857 -4.18967 -12.062 -18.8798 -4.91694 
-11.5658 -20.6155 -5.53727 -11.1203 -21.8336 -6.09181 -10.9269 -22.5379 -6.66714 
-8.8084 -7.16632 -0.266516 -7.49012 -6.49844 -0.106496 -6.19193 -5.795 0.0700966 
-4.90052 -5.03737 0.212672 -3.68183 -4.28435 0.279163 -2.61196 -3.50324 0.328501 
-1.70996 -2.6511 0.345737 -1.08314 -1.74939 0.279446 -0.802667 -0.783619 0.184007 
-18.112 -4.65988 -1.45608 -18.3073 -4.62911 -1.04836 -18.4648 -4.58973 -0.583251 
-18.6071 -4.56406 -0.0688108 -18.6934 -4.62869 0.489159 -18.641 -4.83638 1.00951 
-18.4867 -5.16535 1.41936 -18.3282 -5.55594 1.72742 -18.1597 -5.94556 1.94078 
-18.5468 -5.7554 -2.03085 -19.2415 -6.92328 -2.32168 -19.9535 -8.15 -2.6797 
-20.6317 -9.40518 -3.08228 -21.1029 -10.843 -3.55008 -21.2753 -12.6467 -4.08997 
-21.2514 -14.5759 -4.51423 -21.096 -16.1822 -4.67188 -20.8219 -17.3737 -4.6656 
-17.3606 -3.63079 -1.33 -16.7898 -2.47949 -0.828158 -16.1709 -1.28605 -0.340164 
-15.4821 -0.164011 0.13881 -14.7396 0.838007 0.639255 -13.9971 1.75436 1.10354 
-13.2133 2.52198 1.51559 -12.3096 3.07203 1.92524 -11.3287 3.46914 2.28866 
-18.6886 -7.29779 1.55854 -19.3898 -8.44364 0.982011 -20.0163 -9.76781 0.352931 
-20.6133 -11.1749 -0.288844 -21.0179 -12.5373 -0.998031 -21.1053 -13.9172 -1.82456 
-21.0664 -15.2984 -2.65861 -21.0019 -16.5053 -3.39623 -20.8151 -17.4966 -4.05084 
-17.3436 -5.09668 2.50073 -16.7716 -3.81563 2.95959 -16.1953 -2.50664 3.36355 
-15.515 -1.21357 3.60247 -14.7204 0.069716 3.65342 -13.8775 1.23182 3.58828 
-12.989 2.10441 3.42878 -12.0545 2.74225 3.16516 -11.1555 3.29318 2.84784 
-11.8027 -23.3015 -7.32988 -12.9428 -23.4519 -7.18497 -14.3223 -23.3414 -6.85422 
-15.5916 -23.0752 -6.49461 -16.6451 -22.6103 -6.18903 -17.6914 -21.8857 -5.89315 
-18.7155 -21.1007 -5.59802 -19.4946 -20.2926 -5.30015 -20.0435 -19.3355 -4.9714 
-0.933749 1.29694 0.440728 -1.326 2.29197 0.764017 -2.06103 2.93182 1.02919 
-3.13638 3.39332 1.23886 -4.32556 3.96424 1.44656 -5.53185 4.43843 1.70013 
-6.8369 4.58554 1.98869 -8.14874 4.47481 2.24229 -9.32473 4.18204 2.41745 
-10.2748 -0.775143 -2.79725 -10.0586 -1.33101 -2.9958 -11.3335 -1.92032 -3.06985 
-9.9196 -1.95344 -3.23191 -11.2822 -2.55596 -3.3238 -12.554 -3.28542 -3.4407 
-9.92914 -2.67011 -3.46479 -11.3222 -3.30399 -3.57198 -12.6375 -4.11463 -3.71716 
-13.7426 -5.01448 -3.83287 -10.1177 -3.53334 -3.60773 -11.5199 -4.2894 -3.73573 
-12.8171 -5.22162 -3.92043 -13.8926 -6.19926 -4.09814 -14.7956 -7.07795 -4.26236 
-10.5012 -4.56489 -3.6431 -11.8833 -5.49648 -3.82332 -13.0847 -6.59737 -4.09209 
-14.0728 -7.6394 -4.33094 -14.9029 -8.48318 -4.57423 -15.6472 -9.10187 -4.83941 
-11.0504 -5.7471 -3.65906 -12.345 -6.836 -3.89629 -13.3487 -8.04729 -4.31098 
-14.1632 -9.09545 -4.66756 -14.904 -9.8866 -4.94053 -15.578 -10.4325 -5.24718 
-16.1874 -10.8129 -5.4989 -11.6171 -6.9703 -3.74193 -12.7629 -8.21578 -4.0292 
-13.5373 -9.46992 -4.54953 -14.1111 -10.4459 -5.05991 -14.7203 -11.1453 -5.39773 
-15.3443 -11.6488 -5.68608 -15.9209 -11.9997 -5.95334 -16.4618 -12.2599 -6.07951 
-8.39043 0.747134 -2.51547 -7.19236 1.22069 -2.3832 -7.95225 0.251162 -2.67221 
-5.88314 1.50888 -2.20418 -6.71139 0.639607 -2.53174 -7.63201 -0.395124 -2.84489 
-4.57674 1.59909 -1.98482 -5.40251 0.815806 -2.36078 -6.41313 -0.103935 -2.70065 
-7.49934 -1.15421 -3.06696 -3.40263 1.55982 -1.73966 -4.14422 0.808608 -2.15683 
-5.15094 -0.0370342 -2.52294 -6.32743 -0.991077 -2.88067 -7.49329 -2.00552 -3.27718 
-2.40944 1.36583 -1.48372 -3.08565 0.648376 -1.89922 -4.0009 -0.164805 -2.3081 
-5.18668 -1.03947 -2.63609 -6.40559 -1.9963 -3.03233 -7.61435 -2.96381 -3.42298 
-1.62126 0.94169 -1.18968 -2.2538 0.29473 -1.59703 -3.10912 -0.4537 -2.02446 
-4.23768 -1.23694 -2.36895 -5.51067 -2.11275 -2.70976 -6.68473 -3.08767 -3.17472 
-7.99065 -4.00469 -3.52086 -1.10107 0.34627 -0.837303 -1.63879 -0.216052 -1.27557 
-2.45165 -0.871326 -1.68655 -3.51521 -1.55073 -2.05659 -4.80142 -2.26637 -2.37647 
-6.04812 -3.21009 -2.81363 -7.2002 -4.16558 -3.30524 -8.61994 -4.99031 -3.57109 
-1.02609 -1.25323 -0.387087 -1.51788 -2.21127 -0.317066 -1.63529 -1.74294 -0.902371 
-2.31742 -3.17786 -0.285659 -2.31485 -2.76238 -0.877764 -2.5427 -2.34216 -1.33571 
-3.30452 -4.06612 -0.292944 -3.20905 -3.73588 -0.889644 -3.3269 -3.32087 -1.35925 
-3.6566 -2.87808 -1.71536 -4.4416 -4.89059 -0.293256 -4.24632 -4.64181 -0.89737 
-4.2827 -4.27776 -1.43395 -4.51348 -3.85512 -1.80519 -4.9665 -3.49236 -2.10927 
[...]
POINT_DATA 1002
FIELD FieldData 4
_paraPhi 1 1002 double
6.2831853072 3.1415926536 6.2831853072 3.1415926536 4.7123889804 4.7123889804 1.5707963268 1.5707963268 3.6951670125 
5.7296109483 2.5880182947 0.5535743589 6.2831853072 6.2831853072 6.2831853072 6.2831853072 3.1415926536 3.1415926536 
3.1415926536 3.1415926536 3.1415926536 6.1053039672 5.898798347 5.6768734901 5.4599499503 5.2659633393 5.1032165617 
4.9713148346 4.8656852733 4.7809517865 0.17788134 0.38438696014 0.60631181711 0.82323535693 1.0172219679 1.1799687454 
1.3118704726 1.4175000338 1.5022335207 6.1892828907 6.1070320098 6.035312792 5.9728339911 5.9183214791 5.8706119594 
5.8286879411 5.7916808611 5.7588591896 0.093902416448 0.17615329733 0.2478725152 0.31035131605 0.36486382811 0.41257334776 
0.45449736604 0.4915044461 0.52432611754 3.3194739936 3.5259796137 3.7479044707 3.9648280105 4.1588146215 4.321561399 
4.4534631262 4.5590926874 4.6438261743 2.9637113136 2.7572056934 2.5352808365 2.3183572967 2.1243706857 1.9616239082 
1.829722181 1.7240926197 1.6393591329 3.23549507 3.3177459509 3.3894651688 3.4519439696 3.5064564817 3.5541660013 
3.5960900196 3.6330970997 3.6659187711 3.0476902371 2.9654393563 2.8937201384 2.8312413375 2.7767288255 2.7290193058 
2.6870952876 2.6500882075 2.617266536 6.2831853072 6.2831853072 6.2831853072 6.2831853072 3.1415926536 3.1415926536 
3.1415926536 3.1415926536 3.1415926536 6.1053039672 5.898798347 5.6768734901 5.4599499503 5.2659633393 5.1032165617 
4.9713148346 4.8656852733 4.7809517865 0.17788134 0.38438696014 0.60631181711 0.82323535693 1.0172219679 1.1799687454 
1.3118704726 1.4175000338 1.5022335207 6.1892828907 6.1070320098 6.035312792 5.9728339911 5.9183214791 5.8706119594 
5.8286879411 5.7916808611 5.7588591896 0.093902416448 0.17615329733 0.2478725152 0.31035131605 0.36486382811 0.41257334776 
0.45449736604 0.4915044461 0.52432611754 3.3194739936 3.5259796137 3.7479044707 3.9648280105 4.1588146215 4.321561399 
4.4534631262 4.5590926874 4.6438261743 2.9637113136 2.7572056934 2.5352808365 2.3183572967 2.1243706857 1.9616239082 
1.829722181 1.7240926197 1.6393591329 3.23549507 3.3177459509 3.3894651688 3.4519439696 3.5064564817 3.5541660013 
3.5960900196 3.6330970997 3.6659187711 3.0476902371 2.9654393563 2.8937201384 2.8312413375 2.7767288255 2.7290193058 
2.6870952876 2.6500882075 2.617266536 4.7123889804 4.7123889804 4.7123889804 4.7123889804 4.7123889804 4.7123889804 
4.7123889804 4.7123889804 4.7123889804 4.6087898617 4.4991390697 4.3857031936 4.2712800401 4.1588146215 4.0509635631 
3.94975894 3.8564636551 3.7716124825 4.8159880991 4.9256388911 5.0390747672 5.1534979207 5.2659633393 5.3738143976 
5.4750190208 5.5683143056 5.6531654782 4.6087898617 4.4991390697 4.3857031936 4.2712800401 4.1588146215 4.0509635631 
3.94975894 3.8564636551 3.7716124825 4.8159880991 4.9256388911 5.0390747672 5.1534979207 5.2659633393 5.3738143976 
5.4750190208 5.5683143056 5.6531654782 1.5707963268 1.5707963268 1.5707963268 1.5707963268 1.5707963268 1.5707963268 
1.5707963268 1.5707963268 1.5707963268 1.6743954455 1.7840462375 1.8974821136 2.0119052671 2.1243706857 2.232221744 
2.3334263672 2.426721652 2.5115728246 1.4671972081 1.3575464161 1.24411054 1.1296873865 1.0172219679 0.90937090954 
0.80816628637 0.71487100155 0.63001982895 1.6743954455 1.7840462375 1.8974821136 2.0119052671 2.1243706857 2.232221744 
2.3334263672 2.426721652 2.5115728246 1.4671972081 1.3575464161 1.24411054 1.1296873865 1.0172219679 0.90937090954 
0.80816628637 0.71487100155 0.63001982895 3.6007720849 3.4966939854 3.3839471039 3.2645756454 3.1415926536 3.0186096618 
2.8992382033 2.7864913217 2.6824132222 5.8240058758 5.9280839753 6.0408308569 6.1602023154 6.2831853072 0.12298299178 
0.2423544503 0.35510133185 0.45917943135 6.0560271438 5.7885595667 5.9702140275 5.5125918794 5.6029703303 5.7885595667 
5.2659633393 5.2659633393 5.2659633393 5.2659633393 5.0674903122 5.0120975802 4.9155579264 4.7123889804 4.1588146215 
4.9155579264 4.8353719722 4.7123889804 4.5092200343 4.1588146215 3.6362183941 4.8004512023 4.7123889804 4.5894059886 
4.4126803806 4.1588146215 3.8218076305 3.4545639333 4.7123889804 4.6243267584 4.5092200343 4.3572876485 4.1588146215 
3.9121860814 3.6362183941 3.368750817 6.0174235957 5.9434319871 5.8263323547 5.8809213739 5.7674481418 5.6279784266 
5.8278025282 5.718968232 5.5891129425 5.4372443565 5.7823484065 5.678536687 5.5575666702 5.4192596322 5.2659633393 
5.743164462 5.6444075337 5.5314983644 5.4046708639 5.2659633393 5.1195510325 5.7091357773 5.6152775188 5.5096229709 
5.3926039573 5.2659633393 5.1329233157 4.9978930058 5.6793730533 5.5901633916 5.4910209005 5.3824597928 5.2659633393 
5.1440684722 5.0201624502 4.8979782167 5.5683143056 5.4750190208 5.4750190208 5.3738143976 5.3738143976 5.3738143976 
5.2659633393 5.2659633393 5.2659633393 5.2659633393 5.1534979207 5.1534979207 5.1534979207 5.1534979207 5.1534979207 
5.0390747672 5.0390747672 5.0390747672 5.0390747672 5.0390747672 5.0390747672 4.9256388911 4.9256388911 4.9256388911 
4.9256388911 4.9256388911 4.9256388911 4.9256388911 4.8159880991 4.8159880991 4.8159880991 4.8159880991 4.8159880991 
4.8159880991 4.8159880991 4.8159880991 4.6087898617 4.6087898617 4.4991390697 4.6087898617 4.4991390697 4.3857031936 
4.6087898617 4.4991390697 4.3857031936 4.2712800401 4.6087898617 4.4991390697 4.3857031936 4.2712800401 4.1588146215 
4.6087898617 4.4991390697 4.3857031936 4.2712800401 4.1588146215 4.0509635631 4.6087898617 4.4991390697 4.3857031936 
4.2712800401 4.1588146215 4.0509635631 3.94975894 4.6087898617 4.4991390697 4.3857031936 4.2712800401 4.1588146215 
4.0509635631 3.94975894 3.8564636551 4.526799744 4.4046155105 4.426884955 4.2807094886 4.2918546451 4.3052269283 
4.1588146215 4.1588146215 4.1588146215 4.1588146215 4.042318168 4.0321740035 4.0201070968 4.0055183285 3.9875336042 
3.9337570603 3.9151549899 3.8932795963 3.8672112905 3.8356650183 3.7967995342 3.8346145692 3.809500442 3.7803704271 
3.7462412737 3.7058097288 3.657329819 3.5984456061 3.7454049075 3.7156421835 3.6816134988 3.6424295543 3.5969754326 
3.5438565869 3.4813459737 3.4073543651 3.5642842451 3.4524645613 3.5233842518 3.3320300872 3.403123212 3.4773852225 
3.20576226 3.2746326772 3.348015857 3.4255060145 3.0774230472 3.1415926536 3.2112816139 3.2864685043 3.3668817272 
2.95115522 3.00855263 3.0719036933 3.1415926536 3.2178377658 3.3005964304 2.8307207459 2.8800620952 2.9351694502 
2.9967168029 3.0653475414 3.1415926536 3.225752376 2.718901062 2.7598010554 2.8058000847 2.8576792927 2.91630358 
2.9825888767 3.0574329311 3.1415926536 3.5642842451 3.5233842518 3.4524645613 3.4773852225 3.403123212 3.3320300872 
3.4255060145 3.348015857 3.2746326772 3.20576226 3.3668817272 3.2864685043 3.2112816139 3.1415926536 3.0774230472 
3.3005964304 3.2178377658 3.1415926536 3.0719036933 3.00855263 2.95115522 3.225752376 3.1415926536 3.0653475414 
2.9967168029 2.9351694502 2.8800620952 2.8307207459 3.1415926536 3.0574329311 2.9825888767 2.91630358 2.8576792927 
2.8058000847 2.7598010554 2.718901062 4.526799744 4.426884955 4.4046155105 4.3052269283 4.2918546451 4.2807094886 
4.1588146215 4.1588146215 4.1588146215 4.1588146215 3.9875336042 4.0055183285 4.0201070968 4.0321740035 4.042318168 
3.7967995342 3.8356650183 3.8672112905 3.8932795963 3.9151549899 3.9337570603 3.5984456061 3.657329819 3.7058097288 
3.7462412737 3.7803704271 3.809500442 3.8346145692 3.4073543651 3.4813459737 3.5438565869 3.5969754326 3.6424295543 
3.6816134988 3.7156421835 3.7454049075 4.7123889804 4.8004512023 4.6243267584 4.9155579264 4.7123889804 4.5092200343 
5.0674903122 4.8353719722 4.5894059886 4.3572876485 5.2659633393 5.0120975802 4.7123889804 4.4126803806 4.1588146215 
5.5125918794 5.2659633393 4.9155579264 4.5092200343 4.1588146215 3.9121860814 5.7885595667 5.6029703303 5.2659633393 
4.7123889804 4.1588146215 3.8218076305 3.6362183941 6.0560271438 5.9702140275 5.7885595667 5.2659633393 4.1588146215 
3.6362183941 3.4545639333 3.368750817 0.22715816343 0.49462574053 0.3129712797 0.77059342779 0.68021497688 0.49462574053 
1.0172219679 1.0172219679 1.0172219679 1.0172219679 1.2156949949 1.271087727 1.3676273807 1.5707963268 2.1243706857 
1.3676273807 1.447813335 1.5707963268 1.7739652728 2.1243706857 2.6469669131 1.4827341049 1.5707963268 1.6937793186 
1.8705049266 2.1243706857 2.4613776767 2.8286213739 1.5707963268 1.6588585487 1.7739652728 1.9258976586 2.1243706857 
2.3709992258 2.6469669131 2.9144344902 1.7563855631 1.8785697967 1.8563003522 2.0024758186 1.9913306621 1.9779583789 
2.1243706857 2.1243706857 2.1243706857 2.1243706857 2.2408671392 2.2510113037 2.2630782103 2.2776669786 2.295651703 
2.3494282469 2.3680303173 2.3899057108 2.4159740166 2.4475202889 2.486385773 2.448570738 2.4736848652 2.5028148801 
2.5369440334 2.5773755784 2.6258554882 2.6847397011 2.5377803997 2.5675431237 2.6015718084 2.6407557529 2.6862098746 
2.7393287203 2.8018393335 2.8758309421 1.6743954455 1.6743954455 1.7840462375 1.6743954455 1.7840462375 1.8974821136 
1.6743954455 1.7840462375 1.8974821136 2.0119052671 1.6743954455 1.7840462375 1.8974821136 2.0119052671 2.1243706857 
1.6743954455 1.7840462375 1.8974821136 2.0119052671 2.1243706857 2.232221744 1.6743954455 1.7840462375 1.8974821136 
2.0119052671 2.1243706857 2.232221744 2.3334263672 1.6743954455 1.7840462375 1.8974821136 2.0119052671 2.1243706857 
2.232221744 2.3334263672 2.426721652 1.4671972081 1.3575464161 1.4671972081 1.24411054 1.3575464161 1.4671972081 
1.1296873865 1.24411054 1.3575464161 1.4671972081 1.0172219679 1.1296873865 1.24411054 1.3575464161 1.4671972081 
0.90937090954 1.0172219679 1.1296873865 1.24411054 1.3575464161 1.4671972081 0.80816628637 0.90937090954 1.0172219679 
1.1296873865 1.24411054 1.3575464161 1.4671972081 0.71487100155 0.80816628637 0.90937090954 1.0172219679 1.1296873865 
1.24411054 1.3575464161 1.4671972081 0.60381225391 0.57404952988 0.69302191562 0.54002084522 0.66790778838 0.79216440667 
0.50083690068 0.63877777351 0.77356233629 0.90072551443 0.45538277901 0.60464862014 0.75168694275 0.89058134991 1.0172219679 
0.40226393329 0.56421707518 0.72561863695 0.87851444325 1.0172219679 1.139116835 0.33975332011 0.51573716537 0.69407236469 
0.86392567495 1.0172219679 1.1502619915 1.2630228569 0.26576171152 0.45685295248 0.6552068806 0.84594095064 1.0172219679 
1.1636342747 1.2852923014 1.3852070904 0.22715816343 0.3129712797 0.49462574053 0.49462574053 0.68021497688 0.77059342779 
1.0172219679 1.0172219679 1.0172219679 1.0172219679 2.1243706857 1.5707963268 1.3676273807 1.271087727 1.2156949949 
2.6469669131 2.1243706857 1.7739652728 1.5707963268 1.447813335 1.3676273807 2.8286213739 2.4613776767 2.1243706857 
1.8705049266 1.6937793186 1.5707963268 1.4827341049 2.9144344902 2.6469669131 2.3709992258 2.1243706857 1.9258976586 
1.7739652728 1.6588585487 1.5707963268 1.7563855631 1.8563003522 1.8785697967 1.9779583789 1.9913306621 2.0024758186 
2.1243706857 2.1243706857 2.1243706857 2.1243706857 2.295651703 2.2776669786 2.2630782103 2.2510113037 2.2408671392 
2.486385773 2.4475202889 2.4159740166 2.3899057108 2.3680303173 2.3494282469 2.6847397011 2.6258554882 2.5773755784 
2.5369440334 2.5028148801 2.4736848652 2.448570738 2.8758309421 2.8018393335 2.7393287203 2.6862098746 2.6407557529 
2.6015718084 2.5675431237 2.5377803997 5.8604937156 5.901393709 5.9723133995 5.9473927383 6.0216547488 6.0927478736 
5.9992719463 6.0767621038 6.1501452836 6.2190157008 6.0578962336 6.1383094565 6.2134963469 0 0.064169606361 
6.1241815303 6.206940195 6.2831853072 0.069688960264 0.13304002361 0.19043743361 6.1990255847 0 0.07624511221 
0.14487585072 0.20642320337 0.26153055843 0.3108719077 0 0.084159722458 0.15900377685 0.22528907359 0.28391336087 
0.3357925689 0.38179159818 0.42269159155 5.8604937156 5.9723133995 5.901393709 6.0927478736 6.0216547488 5.9473927383 
6.2190157008 6.1501452836 6.0767621038 5.9992719463 0.064169606361 0 6.2134963469 6.1383094565 6.0578962336 
0.19043743361 0.13304002361 0.069688960264 6.2831853072 6.206940195 6.1241815303 0.3108719077 0.26153055843 0.20642320337 
0.14487585072 0.07624511221 6.2831853072 6.1990255847 0.42269159155 0.38179159818 0.3357925689 0.28391336087 0.22528907359 
0.15900377685 0.084159722458 0 5.6793730533 5.7091357773 5.5901633916 5.743164462 5.6152775188 5.4910209005 
5.7823484065 5.6444075337 5.5096229709 5.3824597928 5.8278025282 5.678536687 5.5314983644 5.3926039573 5.2659633393 
5.8809213739 5.718968232 5.5575666702 5.4046708639 5.2659633393 5.1440684722 5.9434319871 5.7674481418 5.5891129425 
5.4192596322 5.2659633393 5.1329233157 5.0201624502 6.0174235957 5.8263323547 5.6279784266 5.4372443565 5.2659633393 
5.1195510325 4.9978930058 4.8979782167 1.3852070904 1.2852923014 1.2630228569 1.1636342747 1.1502619915 1.139116835 
1.0172219679 1.0172219679 1.0172219679 1.0172219679 0.84594095064 0.86392567495 0.87851444325 0.89058134991 0.90072551443 
0.6552068806 0.69407236469 0.72561863695 0.75168694275 0.77356233629 0.79216440667 0.45685295248 0.51573716537 0.56421707518 
0.60464862014 0.63877777351 0.66790778838 0.69302191562 0.26576171152 0.33975332011 0.40226393329 0.45538277901 0.50083690068 
0.54002084522 0.57404952988 0.60381225391 
_paraPhiHalf 1 1002 double
0 3.1415926536 0 3.1415926536 1.5707963268 1.5707963268 1.5707963268 1.5707963268 2.5880182947 
0.5535743589 2.5880182947 0.5535743589 0 0 0 0 3.1415926536 3.1415926536 
3.1415926536 3.1415926536 3.1415926536 0.17788134 0.38438696014 0.60631181711 0.82323535693 1.0172219679 1.1799687454 
1.3118704726 1.4175000338 1.5022335207 0.17788134 0.38438696014 0.60631181711 0.82323535693 1.0172219679 1.1799687454 
1.3118704726 1.4175000338 1.5022335207 0.093902416448 0.17615329733 0.2478725152 0.31035131605 0.36486382811 0.41257334776 
0.45449736604 0.4915044461 0.52432611754 0.093902416448 0.17615329733 0.2478725152 0.31035131605 0.36486382811 0.41257334776 
0.45449736604 0.4915044461 0.52432611754 2.9637113136 2.7572056934 2.5352808365 2.3183572967 2.1243706857 1.9616239082 
1.829722181 1.7240926197 1.6393591329 2.9637113136 2.7572056934 2.5352808365 2.3183572967 2.1243706857 1.9616239082 
1.829722181 1.7240926197 1.6393591329 3.0476902371 2.9654393563 2.8937201384 2.8312413375 2.7767288255 2.7290193058 
2.6870952876 2.6500882075 2.617266536 3.0476902371 2.9654393563 2.8937201384 2.8312413375 2.7767288255 2.7290193058 
2.6870952876 2.6500882075 2.617266536 0 0 0 0 3.1415926536 3.1415926536 
3.1415926536 3.1415926536 3.1415926536 0.17788134 0.38438696014 0.60631181711 0.82323535693 1.0172219679 1.1799687454 
1.3118704726 1.4175000338 1.5022335207 0.17788134 0.38438696014 0.60631181711 0.82323535693 1.0172219679 1.1799687454 
1.3118704726 1.4175000338 1.5022335207 0.093902416448 0.17615329733 0.2478725152 0.31035131605 0.36486382811 0.41257334776 
0.45449736604 0.4915044461 0.52432611754 0.093902416448 0.17615329733 0.2478725152 0.31035131605 0.36486382811 0.41257334776 
0.45449736604 0.4915044461 0.52432611754 2.9637113136 2.7572056934 2.5352808365 2.3183572967 2.1243706857 1.9616239082 
1.829722181 1.7240926197 1.6393591329 2.9637113136 2.7572056934 2.5352808365 2.3183572967 2.1243706857 1.9616239082 
1.829722181 1.7240926197 1.6393591329 3.0476902371 2.9654393563 2.8937201384 2.8312413375 2.7767288255 2.7290193058 
2.6870952876 2.6500882075 2.617266536 3.0476902371 2.9654393563 2.8937201384 2.8312413375 2.7767288255 2.7290193058 
2.6870952876 2.6500882075 2.617266536 1.5707963268 1.5707963268 1.5707963268 1.5707963268 1.5707963268 1.5707963268 
1.5707963268 1.5707963268 1.5707963268 1.6743954455 1.7840462375 1.8974821136 2.0119052671 2.1243706857 2.232221744 
2.3334263672 2.426721652 2.5115728246 1.4671972081 1.3575464161 1.24411054 1.1296873865 1.0172219679 0.90937090954 
0.80816628637 0.71487100155 0.63001982895 1.6743954455 1.7840462375 1.8974821136 2.0119052671 2.1243706857 2.232221744 
2.3334263672 2.426721652 2.5115728246 1.4671972081 1.3575464161 1.24411054 1.1296873865 1.0172219679 0.90937090954 
0.80816628637 0.71487100155 0.63001982895 1.5707963268 1.5707963268 1.5707963268 1.5707963268 1.5707963268 1.5707963268 
1.5707963268 1.5707963268 1.5707963268 1.6743954455 1.7840462375 1.8974821136 2.0119052671 2.1243706857 2.232221744 
2.3334263672 2.426721652 2.5115728246 1.4671972081 1.3575464161 1.24411054 1.1296873865 1.0172219679 0.90937090954 
0.80816628637 0.71487100155 0.63001982895 1.6743954455 1.7840462375 1.8974821136 2.0119052671 2.1243706857 2.232221744 
2.3334263672 2.426721652 2.5115728246 1.4671972081 1.3575464161 1.24411054 1.1296873865 1.0172219679 0.90937090954 
0.80816628637 0.71487100155 0.63001982895 2.6824132222 2.7864913217 2.8992382033 3.0186096618 3.1415926536 3.0186096618 
2.8992382033 2.7864913217 2.6824132222 0.45917943135 0.35510133185 0.2423544503 0.12298299178 0 0.12298299178 
0.2423544503 0.35510133185 0.45917943135 0.22715816343 0.49462574053 0.3129712797 0.77059342779 0.68021497688 0.49462574053 
1.0172219679 1.0172219679 1.0172219679 1.0172219679 1.2156949949 1.271087727 1.3676273807 1.5707963268 2.1243706857 
1.3676273807 1.447813335 1.5707963268 1.7739652728 2.1243706857 2.6469669131 1.4827341049 1.5707963268 1.6937793186 
1.8705049266 2.1243706857 2.4613776767 2.8286213739 1.5707963268 1.6588585487 1.7739652728 1.9258976586 2.1243706857 
2.3709992258 2.6469669131 2.9144344902 0.26576171152 0.33975332011 0.45685295248 0.40226393329 0.51573716537 0.6552068806 
0.45538277901 0.56421707518 0.69407236469 0.84594095064 0.50083690068 0.60464862014 0.72561863695 0.86392567495 1.0172219679 
0.54002084522 0.63877777351 0.75168694275 0.87851444325 1.0172219679 1.1636342747 0.57404952988 0.66790778838 0.77356233629 
0.89058134991 1.0172219679 1.1502619915 1.2852923014 0.60381225391 0.69302191562 0.79216440667 0.90072551443 1.0172219679 
1.139116835 1.2630228569 1.3852070904 0.71487100155 0.80816628637 0.80816628637 0.90937090954 0.90937090954 0.90937090954 
1.0172219679 1.0172219679 1.0172219679 1.0172219679 1.1296873865 1.1296873865 1.1296873865 1.1296873865 1.1296873865 
1.24411054 1.24411054 1.24411054 1.24411054 1.24411054 1.24411054 1.3575464161 1.3575464161 1.3575464161 
1.3575464161 1.3575464161 1.3575464161 1.3575464161 1.4671972081 1.4671972081 1.4671972081 1.4671972081 1.4671972081 
1.4671972081 1.4671972081 1.4671972081 1.6743954455 1.6743954455 1.7840462375 1.6743954455 1.7840462375 1.8974821136 
1.6743954455 1.7840462375 1.8974821136 2.0119052671 1.6743954455 1.7840462375 1.8974821136 2.0119052671 2.1243706857 
1.6743954455 1.7840462375 1.8974821136 2.0119052671 2.1243706857 2.232221744 1.6743954455 1.7840462375 1.8974821136 
2.0119052671 2.1243706857 2.232221744 2.3334263672 1.6743954455 1.7840462375 1.8974821136 2.0119052671 2.1243706857 
2.232221744 2.3334263672 2.426721652 1.7563855631 1.8785697967 1.8563003522 2.0024758186 1.9913306621 1.9779583789 
2.1243706857 2.1243706857 2.1243706857 2.1243706857 2.2408671392 2.2510113037 2.2630782103 2.2776669786 2.295651703 
2.3494282469 2.3680303173 2.3899057108 2.4159740166 2.4475202889 2.486385773 2.448570738 2.4736848652 2.5028148801 
2.5369440334 2.5773755784 2.6258554882 2.6847397011 2.5377803997 2.5675431237 2.6015718084 2.6407557529 2.6862098746 
2.7393287203 2.8018393335 2.8758309421 2.718901062 2.8307207459 2.7598010554 2.95115522 2.8800620952 2.8058000847 
3.0774230472 3.00855263 2.9351694502 2.8576792927 3.0774230472 3.1415926536 3.0719036933 2.9967168029 2.91630358 
2.95115522 3.00855263 3.0719036933 3.1415926536 3.0653475414 2.9825888767 2.8307207459 2.8800620952 2.9351694502 
2.9967168029 3.0653475414 3.1415926536 3.0574329311 2.718901062 2.7598010554 2.8058000847 2.8576792927 2.91630358 
2.9825888767 3.0574329311 3.1415926536 2.718901062 2.7598010554 2.8307207459 2.8058000847 2.8800620952 2.95115522 
2.8576792927 2.9351694502 3.00855263 3.0774230472 2.91630358 2.9967168029 3.0719036933 3.1415926536 3.0774230472 
2.9825888767 3.0653475414 3.1415926536 3.0719036933 3.00855263 2.95115522 3.0574329311 3.1415926536 3.0653475414 