# vtk DataFile Version 5.1
vtk output
ASCII
DATASET POLYDATA
POINTS 100 float
-4.43514 3.65306 0.894312 -4.44382 3.64673 0.892861 -4.46868 3.62648 0.892314 
-4.50886 3.59249 0.892813 -4.56306 3.54494 0.894516 -4.62962 3.48394 0.897543 
-4.7067 3.40938 0.901934 -4.79246 3.32092 0.907613 -4.88521 3.21796 0.914378 
-4.98359 3.09977 0.921924 -5.08663 2.9657 0.929884 -5.19381 2.81538 0.937896 
-5.30507 2.64894 0.945667 -5.42075 2.4672 0.953032 -5.54151 2.27165 0.95998 
-5.66821 2.06446 0.966659 -5.80178 1.8482 0.973338 -5.94309 1.62557 0.980349 
-6.09289 1.39906 0.988005 -6.25169 1.17063 0.996526 -6.41974 0.941442 1.00597 
-6.59701 0.711802 1.01619 -6.78323 0.481178 1.02686 -6.97794 0.248396 1.03746 
-7.18052 0.0119213 1.04737 -7.3903 -0.229815 1.05596 -7.60656 -0.478125 1.0626 
-7.82864 -0.733863 1.06679 -8.05592 -0.99735 1.06817 -8.28786 -1.26844 1.06652 
-8.52398 -1.5467 1.06179 -8.76386 -1.83164 1.05405 -9.00708 -2.12297 1.04344 
-9.25327 -2.42079 1.0302 -9.50202 -2.72561 1.01459 -9.75293 -3.03834 0.996951 
-10.0056 -3.36007 0.977689 -10.2597 -3.69184 0.957299 -10.515 -4.03435 0.936377 
-10.7713 -4.38778 0.915601 -11.0284 -4.75167 0.89569 -11.2865 -5.12503 0.877322 
-11.5457 -5.50652 0.86104 -11.806 -5.89483 0.847129 -12.0677 -6.28901 0.835512 
-12.3304 -6.68886 0.825674 -12.5937 -7.09513 0.816625 -12.8568 -7.50951 0.806941 
-13.1181 -7.93452 0.794849 -13.3758 -8.37305 0.778382 -13.6273 -8.82791 0.755564 
-13.8697 -9.30126 0.724607 -14.0996 -9.79413 0.684087 -14.3137 -10.3061 0.633084 
-14.5089 -10.8351 0.571254 -14.6823 -11.3779 0.498836 -14.8317 -11.9301 0.416586 
-14.9559 -12.4868 0.325676 -15.0542 -13.0436 0.227547 -15.1274 -13.5965 0.123776 
-15.1766 -14.1428 0.0159551 -15.204 -14.6811 -0.094394 -15.2122 -15.211 -0.205859 
-15.204 -15.7333 -0.31714 -15.1822 -16.2492 -0.427033 -15.1491 -16.7596 -0.534395 
-15.107 -17.2653 -0.638135 -15.0572 -17.766 -0.73722 -15.0006 -18.2608 -0.830714 
-14.9376 -18.7481 -0.917843 -14.8681 -19.2257 -0.998077 -14.7919 -19.6918 -1.07119 
-14.7088 -20.1445 -1.13733 -14.6188 -20.5831 -1.19699 -14.5221 -21.0073 -1.25095 
-14.4197 -21.4177 -1.30021 -14.3128 -21.8152 -1.34582 -14.2032 -22.2008 -1.38873 
-14.0932 -22.5751 -1.42964 -13.9851 -22.9379 -1.46892 -13.8817 -23.288 -1.50657 
-13.7854 -23.6234 -1.54221 -13.6986 -23.9412 -1.57526 -13.623 -24.2387 -1.605 
-13.5603 -24.5133 -1.63083 -13.5113 -24.7633 -1.65234 -13.4763 -24.9883 -1.66947 
-13.4552 -25.1892 -1.68255 -13.4471 -25.3682 -1.69227 -13.4507 -25.5285 -1.69954 
-13.4643 -25.6735 -1.70537 -13.4859 -25.8063 -1.7107 -13.5131 -25.9291 -1.71621 
-13.5433 -26.0426 -1.72224 -13.5743 -26.1461 -1.7287 -13.6034 -26.2377 -1.73516 
-13.6285 -26.314 -1.74094 -13.6479 -26.3719 -1.74526 -13.66 -26.408 -1.7474 
-13.664 -26.4203 -1.7469 
LINES 2 100
OFFSETS vtktypeint64
0 100 
CONNECTIVITY vtktypeint64
0 1 2 3 4 5 6 7 8 
9 10 11 12 13 14 15 16 17 
18 19 20 21 22 23 24 25 26 
27 28 29 30 31 32 33 34 35 
36 37 38 39 40 41 42 43 44 
45 46 47 48 49 50 51 52 53 
54 55 56 57 58 59 60 61 62 
63 64 65 66 67 68 69 70 71 
72 73 74 75 76 77 78 79 80 
81 82 83 84 85 86 87 88 89 
90 91 92 93 94 95 96 97 98 
99 
POINT_DATA 100
FIELD FieldData 3
_theta 1 100 double
0 0.031733259127 0.063466518254 0.095199777382 0.12693303651 0.15866629564 0.19039955476 0.22213281389 0.25386607302 
0.28559933214 0.31733259127 0.3490658504 0.38079910953 0.41253236865 0.44426562778 0.47599888691 0.50773214603 0.53946540516 
0.57119866429 0.60293192342 0.63466518254 0.66639844167 0.6981317008 0.72986495992 0.76159821905 0.79333147818 0.82506473731 
0.85679799643 0.88853125556 0.92026451469 0.95199777382 0.98373103294 1.0154642921 1.0471975512 1.0789308103 1.1106640695 
1.1423973286 1.1741305877 1.2058638468 1.237597106 1.2693303651 1.3010636242 1.3327968833 1.3645301425 1.3962634016 
1.4279966607 1.4597299198 1.491463179 1.5231964381 1.5549296972 1.5866629564 1.6183962155 1.6501294746 1.6818627337 
1.7135959929 1.745329252 1.7770625111 1.8087957702 1.8405290294 1.8722622885 1.9039955476 1.9357288068 1.9674620659 
1.999195325 2.0309285841 2.0626618433 2.0943951024 2.1261283615 2.1578616206 2.1895948798 2.2213281389 2.253061398 
2.2847946572 2.3165279163 2.3482611754 2.3799944345 2.4117276937 2.4434609528 2.4751942119 2.506927471 2.5386607302 
2.5703939893 2.6021272484 2.6338605076 2.6655937667 2.6973270258 2.7290602849 2.7607935441 2.7925268032 2.8242600623 
2.8559933214 2.8877265806 2.9194598397 2.9511930988 2.982926358 3.0146596171 3.0463928762 3.0781261353 3.1098593945 
3.1415926536 
_radius 1 100 double
1.3181297902e-14 0.29721241822 0.591543169 0.88025999533 1.1610821011 1.4323149285 1.6928924453 1.9423305105 2.1806133946 
2.4080461653 2.625105102 2.8323083295 3.0301159864 3.218860583 3.3987064167 3.5696388815 3.7314847393 3.8839599825 
4.0267344688 4.1594964894 4.2819996239 4.3940797813 4.4956408684 4.5866199167 4.6669523855 4.7365611069 4.7953853264 
4.843451149 4.8809672365 4.9084167652 4.9266130257 4.936692401 4.9400326597 4.9381027604 4.9322678889 4.9235852175 
4.9126285692 4.899374221 4.8831692482 4.8627922182 4.8366052946 4.8027861889 4.75961709 4.7057964105 4.6407299697 
4.564754066 4.47924768 4.3866083669 4.2900957295 4.1935789637 4.1012442224 4.0173074743 3.9457386802 3.8899597745 
3.8524771571 3.8344766623 3.8355100732 3.8534441913 3.8847645015 3.9251721261 3.9702910997 4.0162780396 4.0601913279 
4.1000826414 4.1348658893 4.1640659728 4.1875521605 4.2053356084 4.2174721551 4.2240665982 4.2253328368 4.2216432534 
4.213513003 4.2015024457 4.1860598368 4.1673462689 4.1450823961 4.1184420743 4.0860043354 4.0457682101 3.9952335516 
3.9315503771 3.8517348549 3.7529402027 3.632757217 3.4895064918 3.3224775602 3.1320721929 2.9198204022 2.6882572325 
2.4406736322 2.1807801467 1.9123392479 1.6388233882 1.3631418454 1.0874593511 0.81311357841 0.54062989709 0.26982682398 
6.419899381e-14 
_area 1 100 double
0 0.24069977219 0.95379392657 2.1133854989 3.6797205503 5.6033577044 7.8296424779 10.302951534 12.970512871 
15.785719845 18.710700323 21.717677843 24.78863256 27.913069551 31.084259574 34.294890667 37.533340633 40.781522245 
44.014552638 47.201809347 50.308702363 53.298689807 56.135303613 58.78400428 61.213679159 63.397717749 65.314814976 
66.94981152 68.294868351 69.351079365 70.130278906 70.656348331 70.964944062 71.100604193 71.11091933 71.038743693 
70.914584532 70.751316478 70.541914162 70.259441472 69.858799754 69.281197224 68.462871204 67.348156359 65.904490423 
64.135218893 62.085976707 59.841893067 57.51563183 55.229650284 53.098480837 51.216538512 49.653807187 48.458622747 
47.663590441 47.284430073 47.304718329 47.66038263 48.247230652 48.95164934 49.676411848 50.340093043 50.870010943 
51.215764737 51.370552008 51.375002069 51.294362795 51.1790527 51.03611305 50.831907771 50.517713447 50.056762903 
49.438043529 48.675163153 47.797085735 46.837466186 45.825249703 44.776429996 43.687134011 42.529966692 41.255951084 
39.802530387 38.105848491 36.114489603 33.801644666 31.172816779 28.267188369 25.152755205 21.917241664 18.657569228 
15.470181735 12.443499356 9.6528640665 7.1578984824 5.0021250467 3.2145977238 1.8129695103 0.80705837451 0.20194022557 
7.9550810024e-14 
