# vtk DataFile Version 5.1
vtk output
ASCII
DATASET POLYDATA
POINTS 100 float
-4.95662 3.60285 1.36735 -4.96474 3.59731 1.36463 -4.98705 3.57886 1.36027 
-5.02264 3.5472 1.35487 -5.07011 3.50184 1.34927 -5.12768 3.44218 1.34445 
-5.19339 3.36755 1.34135 -5.26528 3.2773 1.34071 -5.3416 3.17089 1.34297 
-5.42099 3.04803 1.34821 -5.50259 2.90879 1.35615 -5.58617 2.75363 1.36623 
-5.67206 2.58348 1.37771 -5.76115 2.3997 1.38978 -5.8547 2.20392 1.40174 
-5.95414 1.99795 1.41305 -6.06092 1.78354 1.42346 -6.1762 1.56219 1.43293 
-6.30078 1.335 1.44168 -6.43491 1.10253 1.45006 -6.5783 0.864844 1.45845 
-6.73018 0.621545 1.46718 -6.88943 0.37194 1.47644 -7.05475 0.11524 1.48622 
-7.2249 -0.149236 1.49629 -7.39886 -0.421896 1.50625 -7.576 -0.70279 1.5156 
-7.75611 -0.99161 1.52377 -7.93942 -1.28779 1.53022 -8.12643 -1.59065 1.53453 
-8.31779 -1.89965 1.53643 -8.51407 -2.21449 1.53581 -8.71558 -2.53528 1.5327 
-8.92223 -2.86251 1.52732 -9.13345 -3.19698 1.51995 -9.34827 -3.53963 1.51096 
-9.5654 -3.89128 1.50072 -9.78346 -4.25243 1.48961 -10.0012 -4.62306 1.47798 
-10.2177 -5.00265 1.46611 -10.4324 -5.39019 1.45417 -10.6456 -5.78449 1.44222 
-10.8576 -6.18446 1.43011 -11.0695 -6.58948 1.41748 -11.2819 -6.9997 1.40366 
-11.4954 -7.41624 1.38766 -11.7097 -7.84122 1.36817 -11.924 -8.2775 1.34356 
-12.1359 -8.72833 1.31199 -12.3426 -9.19676 1.27153 -12.5402 -9.68512 1.22027 
-12.7242 -10.1945 1.15655 -12.8903 -10.7242 1.07911 -13.0346 -11.2719 0.987239 
-13.1539 -11.8337 0.88087 -13.2463 -12.4042 0.760629 -13.3113 -12.9775 0.627794 
-13.3496 -13.5478 0.484187 -13.3633 -14.11 0.332019 -13.3551 -14.6601 0.173693 
-13.3285 -15.1957 0.0116001 -13.2867 -15.7159 -0.15206 -13.2327 -16.2213 -0.315424 
-13.1687 -16.7133 -0.477047 -13.0961 -17.1934 -0.63592 -13.0156 -17.6633 -0.791436 
-12.9269 -18.1238 -0.943299 -12.8298 -18.5751 -1.09142 -12.7236 -19.0163 -1.2358 
-12.608 -19.4462 -1.37643 -12.4832 -19.8634 -1.51325 -12.3501 -20.2666 -1.6461 
-12.2102 -20.6553 -1.77475 -12.0655 -21.0297 -1.89893 -11.9182 -21.3912 -2.01842 
-11.7707 -21.7417 -2.13305 -11.6252 -22.0835 -2.24282 -11.4833 -22.4185 -2.34782 
-11.3463 -22.748 -2.44829 -11.2147 -23.0723 -2.54447 -11.0887 -23.39 -2.63662 
-10.9684 -23.6988 -2.72486 -10.8538 -23.9953 -2.80913 -10.7452 -24.2757 -2.88912 
-10.6434 -24.5366 -2.96431 -10.5499 -24.7753 -3.03392 -10.4665 -24.9905 -3.09707 
-10.3953 -25.1824 -3.15285 -10.3384 -25.3527 -3.20045 -10.2976 -25.504 -3.23932 
-10.2736 -25.6396 -3.26925 -10.2664 -25.7628 -3.29047 -10.2744 -25.8757 -3.30367 
-10.2948 -25.9796 -3.30995 -10.3239 -26.074 -3.31078 -10.357 -26.1573 -3.30783 
-10.3892 -26.2267 -3.30284 -10.4159 -26.2794 -3.29739 -10.4334 -26.3123 -3.29279 
-10.4393 -26.3236 -3.2899 
LINES 2 100
OFFSETS vtktypeint64
0 100 
CONNECTIVITY vtktypeint64
0 1 2 3 4 5 6 7 8 
9 10 11 12 13 14 15 16 17 
18 19 20 21 22 23 24 25 26 
27 28 29 30 31 32 33 34 35 
36 37 38 39 40 41 42 43 44 
45 46 47 48 49 50 51 52 53 
54 55 56 57 58 59 60 61 62 
63 64 65 66 67 68 69 70 71 
72 73 74 75 76 77 78 79 80 
81 82 83 84 85 86 87 88 89 
90 91 92 93 94 95 96 97 98 
99 
POINT_DATA 100
FIELD FieldData 3
_theta 1 100 double
0 0.031733259127 0.063466518254 0.095199777382 0.12693303651 0.15866629564 0.19039955476 0.22213281389 0.25386607302 
0.28559933214 0.31733259127 0.3490658504 0.38079910953 0.41253236865 0.44426562778 0.47599888691 0.50773214603 0.53946540516 
0.57119866429 0.60293192342 0.63466518254 0.66639844167 0.6981317008 0.72986495992 0.76159821905 0.79333147818 0.82506473731 
0.85679799643 0.88853125556 0.92026451469 0.95199777382 0.98373103294 1.0154642921 1.0471975512 1.0789308103 1.1106640695 
1.1423973286 1.1741305877 1.2058638468 1.237597106 1.2693303651 1.3010636242 1.3327968833 1.3645301425 1.3962634016 
1.4279966607 1.4597299198 1.491463179 1.5231964381 1.5549296972 1.5866629564 1.6183962155 1.6501294746 1.6818627337 
1.7135959929 1.745329252 1.7770625111 1.8087957702 1.8405290294 1.8722622885 1.9039955476 1.9357288068 1.9674620659 
1.999195325 2.0309285841 2.0626618433 2.0943951024 2.1261283615 2.1578616206 2.1895948798 2.2213281389 2.253061398 
2.2847946572 2.3165279163 2.3482611754 2.3799944345 2.4117276937 2.4434609528 2.4751942119 2.506927471 2.5386607302 
2.5703939893 2.6021272484 2.6338605076 2.6655937667 2.6973270258 2.7290602849 2.7607935441 2.7925268032 2.8242600623 
2.8559933214 2.8877265806 2.9194598397 2.9511930988 2.982926358 3.0146596171 3.0463928762 3.0781261353 3.1098593945 
3.1415926536 
_radius 1 100 double
9.2115064521e-15 0.32356605882 0.64244376258 0.95225922564 1.2495774041 1.5321867279 1.7991907412 2.0509043937 2.2885828072 
2.5140325428 2.7291703379 2.9356029451 3.1343029536 3.3254451831 3.5084411491 3.6821648562 3.8453120821 3.9967961581 
4.136072546 4.2633066116 4.3793449748 4.485504738 4.5832408266 4.6737784923 4.7578017926 4.8352726189 4.9054253784 
4.9669459812 5.018304603 5.0581744759 5.0858416211 5.1015027995 5.1063674565 5.1025222075 5.0925728364 5.0791333758 
5.0642698457 5.0490184991 5.0330840849 5.0147891739 4.9913004074 4.959108835 4.9146934592 4.8552549654 4.7793804418 
4.6875018036 4.5820472496 4.4672516578 4.3486721264 4.2325252342 4.1249970153 4.0316541008 3.9570053288 3.904171263 
3.8745946393 3.8678132516 3.8814437663 3.911531915 3.9532566744 4.0017785387 4.052961464 4.103782249 4.1523789384 
4.1978101188 4.239667219 4.2776906044 4.3114966563 4.340457012 4.3637168238 4.3803135387 4.3893547613 4.3902151776 
4.3827072962 4.3671740004 4.3444573052 4.315726686 4.2821951234 4.2447905314 4.203862708 4.1589851289 4.108872263 
4.051402883 3.9837341396 3.9025032474 3.8041216101 3.6851530277 3.5427353163 3.3749722302 3.1812114848 2.9621443089 
2.7197048218 2.4567957409 2.1769033836 1.8836812414 1.580578127 1.2705685108 0.95601423998 0.63865542024 0.31970359553 
4.8864704085e-14 
_area 1 100 double
0 0.28093210531 1.1108040766 2.4518532766 4.2447492769 6.4146128852 8.8798896908 11.563079966 14.40104402 
17.352022628 20.397089347 23.535217344 26.772921542 30.111171498 33.533816034 37.00241886 40.460683031 43.847293559 
47.111743111 50.226550303 53.191322241 56.027437087 58.765186719 61.427432973 64.014938756 66.498226221 68.818956035 
70.900856467 72.667170878 74.059570104 75.053206201 75.664071583 75.947342508 75.9877357 75.884199677 75.731651518 
75.602650692 75.531779802 75.504784737 75.454378513 75.265762466 74.795079495 73.900437762 72.478796807 70.497364207 
68.008890285 65.146003668 62.096969092 59.070315099 56.257487144 53.803120162 51.79295115 50.263277275 49.219431339 
48.642982185 48.484092016 48.655716457 49.043676121 49.530655949 50.02639223 50.493124525 50.948164288 51.436347104 
51.990025716 52.601880862 53.221039518 53.768762342 54.162728701 54.337082715 54.252228241 53.896461844 53.283690146 
52.449415241 51.444857464 50.328497338 49.155455177 47.966889529 46.782589975 45.599140217 44.393533023 43.129495308 
41.763009635 40.245220248 38.52380622 36.545941713 34.265696699 31.655977685 28.721368535 25.506293464 22.094431638 
18.599050177 15.147454041 11.864498364 8.8596151331 6.2195988116 4.0069033698 2.261809489 1.0067729465 0.25181033833 
2.3305124135e-13 
