# vtk DataFile Version 5.1
vtk output
ASCII
DATASET POLYDATA
POINTS 100 float
-4.44422 3.81557 1.4009 -4.45024 3.81315 1.39698 -4.46804 3.80325 1.38892 
-4.49779 3.7847 1.37723 -4.53965 3.75571 1.36271 -4.59372 3.71416 1.34628 
-4.65993 3.65779 1.32889 -4.73801 3.5846 1.31143 -4.82747 3.49302 1.2946 
-4.92769 3.38221 1.27887 -5.03797 3.25211 1.26447 -5.15772 3.10352 1.25143 
-5.28656 2.93801 1.23958 -5.42443 2.75772 1.22863 -5.57165 2.56514 1.2182 
-5.72882 2.36283 1.20786 -5.89679 2.15315 1.19716 -6.07645 1.93802 1.1856 
-6.26852 1.7188 1.17264 -6.47341 1.49621 1.15771 -6.69111 1.2704 1.14022 
-6.92107 1.04106 1.11959 -7.16233 0.807599 1.09532 -7.41361 0.569333 1.06708 
-7.67352 0.325676 1.03472 -7.94075 0.0762475 0.998372 -8.21423 -0.179083 0.958422 
-8.49331 -0.440222 0.915481 -8.77771 -0.70694 0.870295 -9.06747 -0.978999 0.823612 
-9.36277 -1.25627 0.776045 -9.66375 -1.53882 0.727937 -9.9703 -1.82692 0.679264 
-10.2819 -2.121 0.629613 -10.5975 -2.42157 0.578222 -10.9159 -2.72899 0.524098 
-11.2353 -3.04338 0.466193 -11.5542 -3.36453 0.403601 -11.8715 -3.69183 0.335743 
-12.1863 -4.0244 0.262496 -12.499 -4.36125 0.184237 -12.8104 -4.70161 0.101788 
-13.1222 -5.04515 0.016257 -13.4365 -5.39231 -0.0711957 -13.7553 -5.74445 -0.159631 
-14.0803 -6.10386 -0.248589 -14.4123 -6.47363 -0.338289 -14.751 -6.85728 -0.429715 
-15.0946 -7.25835 -0.524582 -15.4398 -7.67982 -0.625156 -15.7825 -8.12361 -0.733969 
-16.1173 -8.59022 -0.853465 -16.4389 -9.07844 -0.985631 -16.7421 -9.58545 -1.13168 
-17.0221 -10.1071 -1.29182 -17.2757 -10.6382 -1.4652 -17.5007 -11.1734 -1.64997 
-17.6965 -11.7078 -1.84351 -17.8636 -12.2372 -2.04275 -18.0037 -12.759 -2.24455 
-18.1194 -13.2721 -2.44607 -18.2134 -13.7767 -2.64505 -18.2888 -14.2744 -2.84007 
-18.3481 -14.7673 -3.0305 -18.3939 -15.2576 -3.21654 -18.428 -15.7472 -3.39893 
-18.4519 -16.2371 -3.57873 -18.4668 -16.7272 -3.75702 -18.4735 -17.2164 -3.93464 
-18.4727 -17.7026 -4.112 -18.465 -18.1833 -4.28897 -18.4507 -18.656 -4.46489 
-18.4304 -19.1183 -4.63867 -18.4047 -19.5688 -4.80898 -18.3739 -20.0064 -4.97436 
-18.3386 -20.4311 -5.13349 -18.2996 -20.8431 -5.2853 -18.2578 -21.2428 -5.42901 
-18.2142 -21.6306 -5.56423 -18.1702 -22.0062 -5.69084 -18.1274 -22.3688 -5.80893 
-18.0875 -22.7168 -5.9187 -18.0524 -23.0484 -6.02036 -18.0237 -23.3615 -6.11402 
-18.0027 -23.6544 -6.19972 -17.9904 -23.9261 -6.27735 -17.987 -24.1761 -6.34678 
-17.9922 -24.4054 -6.40787 -18.005 -24.6154 -6.46056 -18.0239 -24.8082 -6.50493 
-18.0471 -24.986 -6.54129 -18.0725 -25.1506 -6.57011 -18.0983 -25.3029 -6.59209 
-18.1228 -25.4427 -6.60809 -18.1448 -25.5686 -6.61904 -18.1632 -25.678 -6.62593 
-18.1778 -25.768 -6.62966 -18.1882 -25.8352 -6.63107 -18.1945 -25.8768 -6.63079 
-18.1966 -25.8908 -6.62925 
LINES 2 100
OFFSETS vtktypeint64
0 100 
CONNECTIVITY vtktypeint64
0 1 2 3 4 5 6 7 8 
9 10 11 12 13 14 15 16 17 
18 19 20 21 22 23 24 25 26 
27 28 29 30 31 32 33 34 35 
36 37 38 39 40 41 42 43 44 
45 46 47 48 49 50 51 52 53 
54 55 56 57 58 59 60 61 62 
63 64 65 66 67 68 69 70 71 
72 73 74 75 76 77 78 79 80 
81 82 83 84 85 86 87 88 89 
90 91 92 93 94 95 96 97 98 
99 
POINT_DATA 100
FIELD FieldData 3
_theta 1 100 double
0 0.031733259127 0.063466518254 0.095199777382 0.12693303651 0.15866629564 0.19039955476 0.22213281389 0.25386607302 
0.28559933214 0.31733259127 0.3490658504 0.38079910953 0.41253236865 0.44426562778 0.47599888691 0.50773214603 0.53946540516 
0.57119866429 0.60293192342 0.63466518254 0.66639844167 0.6981317008 0.72986495992 0.76159821905 0.79333147818 0.82506473731 
0.85679799643 0.88853125556 0.92026451469 0.95199777382 0.98373103294 1.0154642921 1.0471975512 1.0789308103 1.1106640695 
1.1423973286 1.1741305877 1.2058638468 1.237597106 1.2693303651 1.3010636242 1.3327968833 1.3645301425 1.3962634016 
1.4279966607 1.4597299198 1.491463179 1.5231964381 1.5549296972 1.5866629564 1.6183962155 1.6501294746 1.6818627337 
1.7135959929 1.745329252 1.7770625111 1.8087957702 1.8405290294 1.8722622885 1.9039955476 1.9357288068 1.9674620659 
1.999195325 2.0309285841 2.0626618433 2.0943951024 2.1261283615 2.1578616206 2.1895948798 2.2213281389 2.253061398 
2.2847946572 2.3165279163 2.3482611754 2.3799944345 2.4117276937 2.4434609528 2.4751942119 2.506927471 2.5386607302 
2.5703939893 2.6021272484 2.6338605076 2.6655937667 2.6973270258 2.7290602849 2.7607935441 2.7925268032 2.8242600623 
2.8559933214 2.8877265806 2.9194598397 2.9511930988 2.982926358 3.0146596171 3.0463928762 3.0781261353 3.1098593945 
3.1415926536 
_radius 1 100 double
5.0682623478e-15 0.31101074043 0.61952683531 0.9231582982 1.2198770269 1.5081320833 1.7868910204 2.0556062406 2.3141214164 
2.56254396 2.8011113642 3.0300722216 3.2495915675 3.4596814979 3.6601562882 3.8506156578 4.0304643932 4.1989744146 
4.3553845174 4.499018439 4.6293924085 4.7462853674 4.8497584621 4.9401287569 5.017916804 5.0837926849 5.1385395758 
5.1830415977 5.2182894539 5.2453877573 5.2655439934 5.2800208397 5.2900408192 5.2966447554 5.3005215631 5.3018421772 
5.300138966 5.2942695176 5.282490273 5.2626450298 5.2324511794 5.189847365 5.1333534208 5.0623887125 4.9774983944 
4.8804481695 4.7741672939 4.6625467978 4.5501306821 4.4417604649 4.3422335352 4.2560068538 4.1869293473 4.1379496648 
4.1107732657 4.1055569281 4.1208223028 4.153686709 4.2003166683 4.2564281737 4.3177184363 4.3801902622 4.4403652488 
4.4953989784 4.5431269278 4.5820741792 4.6114465191 4.6310952044 4.6414332471 4.6432899641 4.6377167525 4.6257813243 
4.6083919478 4.5861741485 4.5593936707 4.5279019453 4.4910854918 4.4478230058 4.3964758237 4.3349431597 4.2607995945 
4.1715081228 4.0646808781 3.938349007 3.7912023462 3.622763954 3.4334712251 3.2246450881 2.998344335 2.7571242881 
2.5037435011 2.2408790509 1.9709089123 1.695795345 1.4170668203 1.1358671916 0.85303279845 0.56916899562 0.28471512479 
3.4807301091e-14 
_area 1 100 double
0 0.26058693146 1.0352405906 2.3031267112 4.0312145742 6.1768869345 8.6913491088 11.523236895 14.621849159 
17.939819829 21.435413484 25.074521137 28.831734472 32.689073116 36.631060257 40.636692774 44.671510089 48.683836289 
52.607287059 56.368754363 59.899262244 63.144462564 66.071758223 68.672087245 70.956186384 72.947168872 74.672624797 
76.159389997 77.43253838 78.517801141 79.444664411 80.246947975 80.959281807 81.610595339 82.217186472 82.777127475 
83.26631836 83.636272918 83.814760906 83.711426981 83.230028471 82.286571097 80.829533162 78.856439434 76.421493842 
73.631636226 70.631739796 67.582115223 64.633666788 61.909715354 59.503928097 57.491795809 55.936752805 54.872204922 
54.276196543 54.091039535 54.265102978 54.751314637 55.485248211 56.388305963 57.383653277 58.40083149 59.369623896 
60.213978493 60.85409456 61.21812763 61.259758913 60.974728772 60.408004019 59.645221119 58.788333039 57.924263503 
57.101398037 56.324861562 55.568549891 54.791575882 53.948271712 52.990057661 51.864007289 50.512887874 48.87861594 
46.909003512 44.566580105 41.837518828 38.738338449 35.318359806 31.656803009 27.854680247 24.02303649 20.27027013 
16.691657948 13.363386351 10.341665896 7.6657909229 5.3630276248 3.4531975293 1.9516303768 0.87032544379 0.21802097351 
8.7014564451e-14 
