# vtk DataFile Version 5.1
vtk output
ASCII
DATASET POLYDATA
POINTS 1002 float
-8.82664 -0.250022 -3.55572 9.09241 -0.712468 -3.30386 -7.85468 0.241814 3.73431 
7.90865 -0.763729 2.3698 -0.535714 1.72378 -1.9425 -1.54165 2.5472 1.74235 
-0.614779 -6.25215 -1.92336 0.320747 -6.85193 2.60621 14.3724 9.87184 0.588333 
-13.8118 7.91414 0.641659 14.1589 -2.75085 -0.182472 -13.0668 -3.52918 -0.160115 
-7.64639 -0.60039 -3.50506 -6.23209 -0.986223 -3.48734 -4.59291 -1.39505 -3.46468 
-2.66864 -1.77992 -3.33269 -0.381418 -2.04611 -3.11171 2.06367 -2.12925 -3.01093 
4.29222 -2.02164 -3.12099 6.17065 -1.71543 -3.28158 7.75864 -1.24492 -3.34375 
-8.62195 0.212697 -3.59738 -8.2819 0.674037 -3.59659 -7.74957 1.14726 -3.48537 
-7.14529 1.61569 -3.37079 -6.58174 2.02881 -3.34099 -5.846 2.29575 -3.20116 
-4.68137 2.32088 -2.8465 -3.21431 2.14445 -2.47062 -1.77417 1.91355 -2.19002 
-8.2983 -0.949625 -3.49949 -7.67541 -1.69925 -3.4515 -6.92712 -2.46591 -3.35364 
-6.07459 -3.21118 -3.17425 -5.16941 -3.91291 -2.96813 -4.22187 -4.55284 -2.79458 
-3.25669 -5.11349 -2.62932 -2.32806 -5.58675 -2.41854 -1.44787 -5.96386 -2.16536 
-9.81329 0.42203 -3.63628 -10.8275 1.19429 -3.67242 -11.8247 2.06295 -3.56183 
-12.7699 3.10894 -3.26477 -13.6109 4.38847 -2.84419 -14.2087 5.67824 -2.31376 
-14.4685 6.66846 -1.61697 -14.4476 7.32126 -0.802462 -14.2175 7.73052 -0.015889 
-9.60233 -0.374547 -3.57595 -10.393 -0.574795 -3.55998 -11.1348 -0.821129 -3.41015 
-11.7801 -1.10631 -3.13142 -12.3561 -1.47317 -2.85115 -12.8132 -1.95886 -2.54297 
-13.0756 -2.52218 -2.05046 -13.1882 -3.02881 -1.39867 -13.1882 -3.36176 -0.741195 
8.80248 -0.315081 -3.28112 8.38836 0.0616907 -3.24984 7.86734 0.43508 -3.16965 
7.20435 0.782853 -2.96727 6.36623 1.00986 -2.67494 5.41545 1.07393 -2.38397 
4.30809 1.03374 -2.13051 2.86442 1.01737 -1.96626 1.13795 1.21256 -1.92531 
8.4891 -1.4728 -3.35141 7.72255 -2.26664 -3.36825 6.80938 -3.04575 -3.34434 
5.75964 -3.76275 -3.26202 4.6068 -4.38862 -3.09745 3.44374 -4.90295 -2.8691 
2.33514 -5.30853 -2.63006 1.27881 -5.65068 -2.39186 0.284257 -5.96754 -2.14911 
10.1614 0.146859 -3.18072 11.2074 1.17903 -2.94863 12.2055 2.39766 -2.62069 
13.1037 3.73925 -2.29121 13.8356 5.06894 -2.0031 14.3918 6.3742 -1.71786 
14.7435 7.74044 -1.39111 14.8061 8.99763 -0.915067 14.6237 9.76247 -0.213386 
9.97433 -0.659197 -3.24116 10.8408 -0.651183 -3.12955 11.7205 -0.662169 -2.98335 
12.6311 -0.697515 -2.79144 13.4789 -0.798383 -2.48669 14.1234 -0.971538 -2.05689 
14.5212 -1.25598 -1.59415 14.6666 -1.71145 -1.13925 14.5324 -2.26149 -0.66192 
-6.75878 -0.178613 3.86714 -5.48166 -0.61349 3.93346 -3.96125 -1.0475 3.92277 
-2.23389 -1.46887 3.82342 -0.4009 -1.8009 3.61847 1.47898 -1.91683 3.32291 
3.33966 -1.79827 3.00469 5.06595 -1.53705 2.72519 6.58781 -1.18709 2.50858 
-7.53711 0.698783 3.72203 -7.11939 1.12559 3.64651 -6.59455 1.52779 3.54286 
-5.98786 1.92683 3.44472 -5.32503 2.25577 3.28205 -4.60972 2.4729 3.03994 
-3.83127 2.63226 2.79785 -3.01998 2.72755 2.52602 -2.24822 2.69872 2.15844 
-7.45103 -0.481713 3.84275 -6.95387 -1.21435 4.00329 -6.32204 -1.98246 4.14158 
-5.45294 -2.85712 4.14058 -4.34879 -3.80911 4.03899 -3.21271 -4.71949 3.89628 
-2.19978 -5.48861 3.64047 -1.28864 -6.07185 3.28529 -0.444173 -6.50297 2.93299 
-8.73765 0.979107 3.56065 -9.64968 1.78728 3.3228 -10.5309 2.61872 2.99394 
-11.3421 3.49532 2.64855 -12.0839 4.43915 2.39231 -12.7159 5.35504 2.17257 
-13.1867 6.1788 1.88729 -13.5189 6.93215 1.53962 -13.7349 7.54838 1.13255 
-8.71846 0.19215 3.588 -9.69798 0.104176 3.37166 -10.7269 -0.0384332 3.11143 
-11.66 -0.299742 2.77922 -12.4131 -0.743759 2.32492 -13.0019 -1.32008 1.8051 
-13.3952 -1.9233 1.30749 -13.5098 -2.52045 0.820429 -13.3622 -3.08275 0.321576 
7.49514 -0.433718 2.39287 6.96844 -0.125273 2.41559 6.28719 0.12748 2.36898 
5.40902 0.288332 2.2355 4.31841 0.381206 2.1118 3.03117 0.513133 2.06476 
1.65021 0.797026 2.03232 0.361018 1.27181 1.95744 -0.705217 1.88764 1.85547 
7.46836 -1.40254 2.4416 6.91761 -2.10029 2.52061 6.2888 -2.82822 2.58708 
5.64796 -3.53433 2.7224 4.93994 -4.23813 2.8938 4.07295 -4.96206 2.90093 
3.11772 -5.61186 2.7739 2.17234 -6.11961 2.70859 1.23961 -6.52231 2.69175 
8.95767 -0.0245824 2.31672 10.0871 0.87781 2.32408 11.2112 1.92614 2.31548 
12.2297 3.12432 2.27144 13.1449 4.44961 2.30651 13.9305 5.80863 2.41469 
14.4444 7.15419 2.36385 14.6252 8.43445 1.98381 14.5607 9.4206 1.32926 
8.90739 -0.691939 2.32663 9.90789 -0.635443 2.33861 10.8672 -0.649666 2.35788 
11.7535 -0.824306 2.26159 12.5212 -1.18344 1.96948 13.1248 -1.6057 1.56024 
13.5806 -1.98107 1.17133 13.9183 -2.31234 0.800153 14.1184 -2.58453 0.351373 
-0.796906 2.01642 -1.7581 -1.07528 2.28314 -1.50821 -1.35497 2.56792 -1.20391 
-1.58815 2.87786 -0.836142 -1.69227 3.11933 -0.421927 -1.66079 3.22867 0.00700193 
-1.59516 3.2161 0.468873 -1.56844 3.076 0.949369 -1.56277 2.82955 1.38243 
1.72051 1.43861 -1.66709 4.21873 1.89827 -1.46234 6.53352 3.06432 -1.42608 
8.23717 4.49469 -1.40114 9.58117 5.77493 -1.15703 10.9939 6.86731 -0.795878 
12.2328 7.93471 -0.500979 13.0674 8.95728 -0.200449 13.7347 9.67578 0.183823 
-2.69794 2.79397 -2.07966 -4.5814 4.15364 -2.0522 -6.25158 5.19137 -1.83653 
-7.83601 5.87061 -1.53465 -9.22427 6.62729 -1.20312 -10.4077 7.43015 -0.868296 
-11.5271 7.96966 -0.532606 -12.5148 8.22446 -0.134706 -13.2627 8.21686 0.29709 
-0.205136 1.91227 1.4103 1.77132 1.50052 1.16013 4.48111 1.88519 1.06551 
7.24228 3.19825 1.10212 9.2736 4.83499 1.18953 10.7335 6.26698 1.27915 
12.0273 7.51556 1.35508 13.0512 8.64177 1.32675 13.7642 9.48635 1.06573 
-2.71958 3.32821 1.86401 -4.01233 4.09528 1.93257 -5.4051 4.9327 1.94014 
-6.72483 5.86145 1.92636 -7.9537 6.67474 1.89935 -9.24327 7.26848 1.81335 
-10.5926 7.73723 1.63738 -11.8574 8.06542 1.37377 -12.9394 8.13288 1.03524 
-0.641508 -6.57644 -1.63991 -0.692378 -6.91727 -1.30069 -0.788793 -7.29075 -0.873272 
-0.852577 -7.64828 -0.340727 -0.752871 -7.84315 0.268063 -0.51089 -7.81466 0.857404 
-0.258372 -7.67228 1.36462 -0.0350666 -7.48211 1.83023 0.168835 -7.20865 2.26422 
0.779364 -6.3557 -1.87948 2.23861 -6.53948 -1.95767 3.67566 -6.77055 -2.11198 
5.26303 -6.72939 -2.18281 7.32645 -6.16895 -2.07622 9.67421 -5.35726 -1.85672 
11.6081 -4.64408 -1.56244 12.8223 -4.01595 -1.1505 13.5815 -3.37797 -0.654534 
-2.00907 -6.34231 -1.87442 -3.49627 -6.37955 -1.84578 -5.0434 -6.36066 -1.76083 
-6.5644 -6.29557 -1.61106 -7.98622 -6.15144 -1.46511 -9.31728 -5.87497 -1.27902 
-10.501 -5.43344 -0.974887 -11.4711 -4.85559 -0.640702 -12.3057 -4.21111 -0.376078 
1.6908 -7.02764 2.34666 3.22119 -7.19356 2.05298 4.8224 -7.17335 1.76348 
6.41755 -6.91977 1.49969 8.05475 -6.51674 1.20627 9.73059 -5.94915 0.876803 
11.2106 -5.20871 0.572476 12.3607 -4.3946 0.293648 13.3136 -3.56805 0.0335835 
-1.09718 -6.96937 2.64363 -2.6835 -7.09349 2.61102 -4.45059 -7.08469 2.47155 
-6.32476 -6.85852 2.18134 -8.15118 -6.48494 1.80555 -9.69092 -6.01219 1.47222 
-10.7954 -5.41601 1.14634 -11.6246 -4.7474 0.732274 -12.3845 -4.10502 0.27128 
15.1174 9.61327 0.45743 15.7045 8.65692 0.331237 16.0338 7.01643 0.347002 
16.3293 5.09641 0.479144 16.5796 3.37599 0.532086 16.4842 1.87591 0.42634 
16.1206 0.452582 0.263771 15.6379 -0.80112 0.116271 14.9616 -1.8382 -0.0297061 
-14.571 7.2753 0.499547 -15.1941 6.35572 0.247927 -15.5158 5.26537 -0.0479785 
-15.6268 4.05343 -0.291972 -15.6636 2.69252 -0.444062 -15.5024 1.20199 -0.498979 
-15.1055 -0.294239 -0.461513 -14.565 -1.61939 -0.375822 -13.8723 -2.6819 -0.275878 
-7.28701 -0.189491 -3.54659 -6.7594 0.22701 -3.52943 -5.70228 -0.617261 -3.52648 
-6.12074 0.647416 -3.4571 -5.01972 -0.254161 -3.4997 -3.86539 -1.06726 -3.45352 
-5.48642 1.01282 -3.43128 -4.24635 0.0527127 -3.43743 -2.94243 -0.783832 -3.36455 
-1.63296 -1.48061 -3.23422 -4.66378 1.24201 -3.32642 -3.26037 0.254726 -3.32562 
-1.77089 -0.573819 -3.21413 -0.336687 -1.21215 -3.08994 0.960315 -1.70642 -3.0124 
-3.35293 1.27489 -2.95024 -1.80406 0.366473 -2.99884 -0.225201 -0.350612 -2.97053 
1.21744 -0.88493 -2.93065 2.44955 -1.29695 -2.94859 3.47482 -1.6606 -3.01397 
-1.71314 1.17553 -2.48414 -0.0431738 0.452825 -2.524 1.52816 -0.0198967 -2.62112 
2.87041 -0.361505 -2.75669 3.96414 -0.685292 -2.92366 4.85308 -1.02765 -3.07117 
5.5896 -1.3714 -3.1793 -0.154822 1.12449 -2.15589 1.57342 0.644167 -2.16734 
3.08522 0.437594 -2.30997 4.30204 0.323449 -2.55825 5.30513 0.134092 -2.85098 
6.12171 -0.179704 -3.10128 6.78752 -0.541536 -3.23395 7.33916 -0.892258 -3.2945 
-9.66196 0.980684 -3.68574 -10.6973 1.86767 -3.69817 -9.34735 1.5428 -3.6317 
-11.6865 2.88192 -3.50857 -10.3998 2.54921 -3.56542 -8.80388 2.099 -3.4277 
-12.6025 4.10289 -3.10626 -11.3996 3.70556 -3.29369 -9.86052 3.1846 -3.28494 
-8.16737 2.62385 -3.25496 -13.3135 5.4619 -2.5885 -12.2436 5.02626 -2.82976 
-10.8293 4.40443 -2.97922 -9.15205 3.73514 -3.05966 -7.54427 3.09219 -3.16827 
-13.6664 6.63453 -1.97238 -12.731 6.30415 -2.25189 -11.503 5.67986 -2.48668 
-9.95149 4.90336 -2.69967 -8.35595 4.19628 -2.8759 -6.72909 3.40301 -2.95873 
-13.7151 7.43831 -1.23031 -12.8438 7.25743 -1.58699 -11.7515 6.76523 -1.86016 
-10.3945 5.99083 -2.13955 -8.90199 5.20853 -2.40617 -7.35097 4.47438 -2.58742 
-5.51689 3.42826 -2.62105 -13.5751 7.94855 -0.43405 -12.7505 7.86782 -0.858629 
-11.7109 7.51268 -1.18887 -10.4992 6.84334 -1.48633 -9.16162 6.01608 -1.80173 
-7.68167 5.30747 -2.07983 -6.02511 4.45828 -2.27819 -4.06696 3.18516 -2.32307 
-12.2847 8.33529 0.664181 -11.0077 8.16851 0.970386 -11.356 8.23502 0.202962 
-9.56165 7.76924 1.19552 -9.93205 7.97217 0.465386 -10.2506 7.84077 -0.235209 
-8.2085 7.1926 1.34197 -8.5238 7.44372 0.648551 -8.88297 7.41187 -0.028132 
-9.13954 7.1077 -0.634383 -6.97284 6.39673 1.42696 -7.22637 6.69359 0.782605 
-7.49176 6.75587 0.124586 -7.70248 6.59028 -0.483538 -7.80581 6.26276 -1.02631 
-5.61426 5.4548 1.4736 -5.79606 5.8275 0.879905 -5.92997 6.02974 0.260247 
-6.00725 6.04046 -0.356854 -6.05579 5.86107 -0.926429 -6.13846 5.57386 -1.40577 
-4.13702 4.56507 1.48863 -4.23766 4.96786 0.93636 -4.30698 5.26111 0.36449 
[...]
POINT_DATA 1002
FIELD FieldData 4
_paraPhi 1 1002 double
6.2831853072 3.1415926536 6.2831853072 3.1415926536 4.7123889804 4.7123889804 1.5707963268 1.5707963268 3.6951670125 
5.7296109483 2.5880182947 0.5535743589 6.2831853072 6.2831853072 6.2831853072 6.2831853072 3.1415926536 3.1415926536 
3.1415926536 3.1415926536 3.1415926536 6.1053039672 5.898798347 5.6768734901 5.4599499503 5.2659633393 5.1032165617 
4.9713148346 4.8656852733 4.7809517865 0.17788134 0.38438696014 0.60631181711 0.82323535693 1.0172219679 1.1799687454 
1.3118704726 1.4175000338 1.5022335207 6.1892828907 6.1070320098 6.035312792 5.9728339911 5.9183214791 5.8706119594 
5.8286879411 5.7916808611 5.7588591896 0.093902416448 0.17615329733 0.2478725152 0.31035131605 0.36486382811 0.41257334776 
0.45449736604 0.4915044461 0.52432611754 3.3194739936 3.5259796137 3.7479044707 3.9648280105 4.1588146215 4.321561399 
4.4534631262 4.5590926874 4.6438261743 2.9637113136 2.7572056934 2.5352808365 2.3183572967 2.1243706857 1.9616239082 
1.829722181 1.7240926197 1.6393591329 3.23549507 3.3177459509 3.3894651688 3.4519439696 3.5064564817 3.5541660013 
3.5960900196 3.6330970997 3.6659187711 3.0476902371 2.9654393563 2.8937201384 2.8312413375 2.7767288255 2.7290193058 
2.6870952876 2.6500882075 2.617266536 6.2831853072 6.2831853072 6.2831853072 6.2831853072 3.1415926536 3.1415926536 
3.1415926536 3.1415926536 3.1415926536 6.1053039672 5.898798347 5.6768734901 5.4599499503 5.2659633393 5.1032165617 
4.9713148346 4.8656852733 4.7809517865 0.17788134 0.38438696014 0.60631181711 0.82323535693 1.0172219679 1.1799687454 
1.3118704726 1.4175000338 1.5022335207 6.1892828907 6.1070320098 6.035312792 5.9728339911 5.9183214791 5.8706119594 
5.8286879411 5.7916808611 5.7588591896 0.093902416448 0.17615329733 0.2478725152 0.31035131605 0.36486382811 0.41257334776 
0.45449736604 0.4915044461 0.52432611754 3.3194739936 3.5259796137 3.7479044707 3.9648280105 4.1588146215 4.321561399 
4.4534631262 4.5590926874 4.6438261743 2.9637113136 2.7572056934 2.5352808365 2.3183572967 2.1243706857 1.9616239082 
1.829722181 1.7240926197 1.6393591329 3.23549507 3.3177459509 3.3894651688 3.4519439696 3.5064564817 3.5541660013 
3.5960900196 3.6330970997 3.6659187711 3.0476902371 2.9654393563 2.8937201384 2.8312413375 2.7767288255 2.7290193058 
2.6870952876 2.6500882075 2.617266536 4.7123889804 4.7123889804 4.7123889804 4.7123889804 4.7123889804 4.7123889804 
4.7123889804 4.7123889804 4.7123889804 4.6087898617 4.4991390697 4.3857031936 4.2712800401 4.1588146215 4.0509635631 
3.94975894 3.8564636551 3.7716124825 4.8159880991 4.9256388911 5.0390747672 5.1534979207 5.2659633393 5.3738143976 
5.4750190208 5.5683143056 5.6531654782 4.6087898617 4.4991390697 4.3857031936 4.2712800401 4.1588146215 4.0509635631 
3.94975894 3.8564636551 3.7716124825 4.8159880991 4.9256388911 5.0390747672 5.1534979207 5.2659633393 5.3738143976 
5.4750190208 5.5683143056 5.6531654782 1.5707963268 1.5707963268 1.5707963268 1.5707963268 1.5707963268 1.5707963268 
1.5707963268 1.5707963268 1.5707963268 1.6743954455 1.7840462375 1.8974821136 2.0119052671 2.1243706857 2.232221744 
2.3334263672 2.426721652 2.5115728246 1.4671972081 1.3575464161 1.24411054 1.1296873865 1.0172219679 0.90937090954 
0.80816628637 0.71487100155 0.63001982895 1.6743954455 1.7840462375 1.8974821136 2.0119052671 2.1243706857 2.232221744 
2.3334263672 2.426721652 2.5115728246 1.4671972081 1.3575464161 1.24411054 1.1296873865 1.0172219679 0.90937090954 
0.80816628637 0.71487100155 0.63001982895 3.6007720849 3.4966939854 3.3839471039 3.2645756454 3.1415926536 3.0186096618 
2.8992382033 2.7864913217 2.6824132222 5.8240058758 5.9280839753 6.0408308569 6.1602023154 6.2831853072 0.12298299178 
0.2423544503 0.35510133185 0.45917943135 6.0560271438 5.7885595667 5.9702140275 5.5125918794 5.6029703303 5.7885595667 
5.2659633393 5.2659633393 5.2659633393 5.2659633393 5.0674903122 5.0120975802 4.9155579264 4.7123889804 4.1588146215 
4.9155579264 4.8353719722 4.7123889804 4.5092200343 4.1588146215 3.6362183941 4.8004512023 4.7123889804 4.5894059886 
4.4126803806 4.1588146215 3.8218076305 3.4545639333 4.7123889804 4.6243267584 4.5092200343 4.3572876485 4.1588146215 
3.9121860814 3.6362183941 3.368750817 6.0174235957 5.9434319871 5.8263323547 5.8809213739 5.7674481418 5.6279784266 
5.8278025282 5.718968232 5.5891129425 5.4372443565 5.7823484065 5.678536687 5.5575666702 5.4192596322 5.2659633393 
5.743164462 5.6444075337 5.5314983644 5.4046708639 5.2659633393 5.1195510325 5.7091357773 5.6152775188 5.5096229709 
5.3926039573 5.2659633393 5.1329233157 4.9978930058 5.6793730533 5.5901633916 5.4910209005 5.3824597928 5.2659633393 
5.1440684722 5.0201624502 4.8979782167 5.5683143056 5.4750190208 5.4750190208 5.3738143976 5.3738143976 5.3738143976 
5.2659633393 5.2659633393 5.2659633393 5.2659633393 5.1534979207 5.1534979207 5.1534979207 5.1534979207 5.1534979207 
5.0390747672 5.0390747672 5.0390747672 5.0390747672 5.0390747672 5.0390747672 4.9256388911 4.9256388911 4.9256388911 
4.9256388911 4.9256388911 4.9256388911 4.9256388911 4.8159880991 4.8159880991 4.8159880991 4.8159880991 4.8159880991 
4.8159880991 4.8159880991 4.8159880991 4.6087898617 4.6087898617 4.4991390697 4.6087898617 4.4991390697 4.3857031936 
4.6087898617 4.4991390697 4.3857031936 4.2712800401 4.6087898617 4.4991390697 4.3857031936 4.2712800401 4.1588146215 
4.6087898617 4.4991390697 4.3857031936 4.2712800401 4.1588146215 4.0509635631 4.6087898617 4.4991390697 4.3857031936 
4.2712800401 4.1588146215 4.0509635631 3.94975894 4.6087898617 4.4991390697 4.3857031936 4.2712800401 4.1588146215 
4.0509635631 3.94975894 3.8564636551 4.526799744 4.4046155105 4.426884955 4.2807094886 4.2918546451 4.3052269283 
4.1588146215 4.1588146215 4.1588146215 4.1588146215 4.042318168 4.0321740035 4.0201070968 4.0055183285 3.9875336042 
3.9337570603 3.9151549899 3.8932795963 3.8672112905 3.8356650183 3.7967995342 3.8346145692 3.809500442 3.7803704271 
3.7462412737 3.7058097288 3.657329819 3.5984456061 3.7454049075 3.7156421835 3.6816134988 3.6424295543 3.5969754326 
3.5438565869 3.4813459737 3.4073543651 3.5642842451 3.4524645613 3.5233842518 3.3320300872 3.403123212 3.4773852225 
3.20576226 3.2746326772 3.348015857 3.4255060145 3.0774230472 3.1415926536 3.2112816139 3.2864685043 3.3668817272 
2.95115522 3.00855263 3.0719036933 3.1415926536 3.2178377658 3.3005964304 2.8307207459 2.8800620952 2.9351694502 
2.9967168029 3.0653475414 3.1415926536 3.225752376 2.718901062 2.7598010554 2.8058000847 2.8576792927 2.91630358 
2.9825888767 3.0574329311 3.1415926536 3.5642842451 3.5233842518 3.4524645613 3.4773852225 3.403123212 3.3320300872 
3.4255060145 3.348015857 3.2746326772 3.20576226 3.3668817272 3.2864685043 3.2112816139 3.1415926536 3.0774230472 
3.3005964304 3.2178377658 3.1415926536 3.0719036933 3.00855263 2.95115522 3.225752376 3.1415926536 3.0653475414 
2.9967168029 2.9351694502 2.8800620952 2.8307207459 3.1415926536 3.0574329311 2.9825888767 2.91630358 2.8576792927 
2.8058000847 2.7598010554 2.718901062 4.526799744 4.426884955 4.4046155105 4.3052269283 4.2918546451 4.2807094886 
4.1588146215 4.1588146215 4.1588146215 4.1588146215 3.9875336042 4.0055183285 4.0201070968 4.0321740035 4.042318168 
3.7967995342 3.8356650183 3.8672112905 3.8932795963 3.9151549899 3.9337570603 3.5984456061 3.657329819 3.7058097288 
3.7462412737 3.7803704271 3.809500442 3.8346145692 3.4073543651 3.4813459737 3.5438565869 3.5969754326 3.6424295543 
3.6816134988 3.7156421835 3.7454049075 4.7123889804 4.8004512023 4.6243267584 4.9155579264 4.7123889804 4.5092200343 
5.0674903122 4.8353719722 4.5894059886 4.3572876485 5.2659633393 5.0120975802 4.7123889804 4.4126803806 4.1588146215 
5.5125918794 5.2659633393 4.9155579264 4.5092200343 4.1588146215 3.9121860814 5.7885595667 5.6029703303 5.2659633393 
4.7123889804 4.1588146215 3.8218076305 3.6362183941 6.0560271438 5.9702140275 5.7885595667 5.2659633393 4.1588146215 
3.6362183941 3.4545639333 3.368750817 0.22715816343 0.49462574053 0.3129712797 0.77059342779 0.68021497688 0.49462574053 
1.0172219679 1.0172219679 1.0172219679 1.0172219679 1.2156949949 1.271087727 1.3676273807 1.5707963268 2.1243706857 
1.3676273807 1.447813335 1.5707963268 1.7739652728 2.1243706857 2.6469669131 1.4827341049 1.5707963268 1.6937793186 
1.8705049266 2.1243706857 2.4613776767 2.8286213739 1.5707963268 1.6588585487 1.7739652728 1.9258976586 2.1243706857 
2.3709992258 2.6469669131 2.9144344902 1.7563855631 1.8785697967 1.8563003522 2.0024758186 1.9913306621 1.9779583789 
2.1243706857 2.1243706857 2.1243706857 2.1243706857 2.2408671392 2.2510113037 2.2630782103 2.2776669786 2.295651703 
2.3494282469 2.3680303173 2.3899057108 2.4159740166 2.4475202889 2.486385773 2.448570738 2.4736848652 2.5028148801 
2.5369440334 2.5773755784 2.6258554882 2.6847397011 2.5377803997 2.5675431237 2.6015718084 2.6407557529 2.6862098746 
2.7393287203 2.8018393335 2.8758309421 1.6743954455 1.6743954455 1.7840462375 1.6743954455 1.7840462375 1.8974821136 
1.6743954455 1.7840462375 1.8974821136 2.0119052671 1.6743954455 1.7840462375 1.8974821136 2.0119052671 2.1243706857 
1.6743954455 1.7840462375 1.8974821136 2.0119052671 2.1243706857 2.232221744 1.6743954455 1.7840462375 1.8974821136 
2.0119052671 2.1243706857 2.232221744 2.3334263672 1.6743954455 1.7840462375 1.8974821136 2.0119052671 2.1243706857 
2.232221744 2.3334263672 2.426721652 1.4671972081 1.3575464161 1.4671972081 1.24411054 1.3575464161 1.4671972081 
1.1296873865 1.24411054 1.3575464161 1.4671972081 1.0172219679 1.1296873865 1.24411054 1.3575464161 1.4671972081 
0.90937090954 1.0172219679 1.1296873865 1.24411054 1.3575464161 1.4671972081 0.80816628637 0.90937090954 1.0172219679 
1.1296873865 1.24411054 1.3575464161 1.4671972081 0.71487100155 0.80816628637 0.90937090954 1.0172219679 1.1296873865 
1.24411054 1.3575464161 1.4671972081 0.60381225391 0.57404952988 0.69302191562 0.54002084522 0.66790778838 0.79216440667 
0.50083690068 0.63877777351 0.77356233629 0.90072551443 0.45538277901 0.60464862014 0.75168694275 0.89058134991 1.0172219679 
0.40226393329 0.56421707518 0.72561863695 0.87851444325 1.0172219679 1.139116835 0.33975332011 0.51573716537 0.69407236469 
0.86392567495 1.0172219679 1.1502619915 1.2630228569 0.26576171152 0.45685295248 0.6552068806 0.84594095064 1.0172219679 
1.1636342747 1.2852923014 1.3852070904 0.22715816343 0.3129712797 0.49462574053 0.49462574053 0.68021497688 0.77059342779 
1.0172219679 1.0172219679 1.0172219679 1.0172219679 2.1243706857 1.5707963268 1.3676273807 1.271087727 1.2156949949 
2.6469669131 2.1243706857 1.7739652728 1.5707963268 1.447813335 1.3676273807 2.8286213739 2.4613776767 2.1243706857 
1.8705049266 1.6937793186 1.5707963268 1.4827341049 2.9144344902 2.6469669131 2.3709992258 2.1243706857 1.9258976586 
1.7739652728 1.6588585487 1.5707963268 1.7563855631 1.8563003522 1.8785697967 1.9779583789 1.9913306621 2.0024758186 
2.1243706857 2.1243706857 2.1243706857 2.1243706857 2.295651703 2.2776669786 2.2630782103 2.2510113037 2.2408671392 
2.486385773 2.4475202889 2.4159740166 2.3899057108 2.3680303173 2.3494282469 2.6847397011 2.6258554882 2.5773755784 
2.5369440334 2.5028148801 2.4736848652 2.448570738 2.8758309421 2.8018393335 2.7393287203 2.6862098746 2.6407557529 
2.6015718084 2.5675431237 2.5377803997 5.8604937156 5.901393709 5.9723133995 5.9473927383 6.0216547488 6.0927478736 
5.9992719463 6.0767621038 6.1501452836 6.2190157008 6.0578962336 6.1383094565 6.2134963469 0 0.064169606361 
6.1241815303 6.206940195 6.2831853072 0.069688960264 0.13304002361 0.19043743361 6.1990255847 0 0.07624511221 
0.14487585072 0.20642320337 0.26153055843 0.3108719077 0 0.084159722458 0.15900377685 0.22528907359 0.28391336087 
0.3357925689 0.38179159818 0.42269159155 5.8604937156 5.9723133995 5.901393709 6.0927478736 6.0216547488 5.9473927383 
6.2190157008 6.1501452836 6.0767621038 5.9992719463 0.064169606361 0 6.2134963469 6.1383094565 6.0578962336 
0.19043743361 0.13304002361 0.069688960264 6.2831853072 6.206940195 6.1241815303 0.3108719077 0.26153055843 0.20642320337 
0.14487585072 0.07624511221 6.2831853072 6.1990255847 0.42269159155 0.38179159818 0.3357925689 0.28391336087 0.22528907359 
0.15900377685 0.084159722458 0 5.6793730533 5.7091357773 5.5901633916 5.743164462 5.6152775188 5.4910209005 
5.7823484065 5.6444075337 5.5096229709 5.3824597928 5.8278025282 5.678536687 5.5314983644 5.3926039573 5.2659633393 
5.8809213739 5.718968232 5.5575666702 5.4046708639 5.2659633393 5.1440684722 5.9434319871 5.7674481418 5.5891129425 
5.4192596322 5.2659633393 5.1329233157 5.0201624502 6.0174235957 5.8263323547 5.6279784266 5.4372443565 5.2659633393 
5.1195510325 4.9978930058 4.8979782167 1.3852070904 1.2852923014 1.2630228569 1.1636342747 1.1502619915 1.139116835 
1.0172219679 1.0172219679 1.0172219679 1.0172219679 0.84594095064 0.86392567495 0.87851444325 0.89058134991 0.90072551443 
0.6552068806 0.69407236469 0.72561863695 0.75168694275 0.77356233629 0.79216440667 0.45685295248 0.51573716537 0.56421707518 
0.60464862014 0.63877777351 0.66790778838 0.69302191562 0.26576171152 0.33975332011 0.40226393329 0.45538277901 0.50083690068 
0.54002084522 0.57404952988 0.60381225391 
_paraPhiHalf 1 1002 double
0 3.1415926536 0 3.1415926536 1.5707963268 1.5707963268 1.5707963268 1.5707963268 2.5880182947 
0.5535743589 2.5880182947 0.5535743589 0 0 0 0 3.1415926536 3.1415926536 
3.1415926536 3.1415926536 3.1415926536 0.17788134 0.38438696014 0.60631181711 0.82323535693 1.0172219679 1.1799687454 
1.3118704726 1.4175000338 1.5022335207 0.17788134 0.38438696014 0.60631181711 0.82323535693 1.0172219679 1.1799687454 
1.3118704726 1.4175000338 1.5022335207 0.093902416448 0.17615329733 0.2478725152 0.31035131605 0.36486382811 0.41257334776 
0.45449736604 0.4915044461 0.52432611754 0.093902416448 0.17615329733 0.2478725152 0.31035131605 0.36486382811 0.41257334776 
0.45449736604 0.4915044461 0.52432611754 2.9637113136 2.7572056934 2.5352808365 2.3183572967 2.1243706857 1.9616239082 
1.829722181 1.7240926197 1.6393591329 2.9637113136 2.7572056934 2.5352808365 2.3183572967 2.1243706857 1.9616239082 
1.829722181 1.7240926197 1.6393591329 3.0476902371 2.9654393563 2.8937201384 2.8312413375 2.7767288255 2.7290193058 
2.6870952876 2.6500882075 2.617266536 3.0476902371 2.9654393563 2.8937201384 2.8312413375 2.7767288255 2.7290193058 
2.6870952876 2.6500882075 2.617266536 0 0 0 0 3.1415926536 3.1415926536 
3.1415926536 3.1415926536 3.1415926536 0.17788134 0.38438696014 0.60631181711 0.82323535693 1.0172219679 1.1799687454 
1.3118704726 1.4175000338 1.5022335207 0.17788134 0.38438696014 0.60631181711 0.82323535693 1.0172219679 1.1799687454 
1.3118704726 1.4175000338 1.5022335207 0.093902416448 0.17615329733 0.2478725152 0.31035131605 0.36486382811 0.41257334776 
0.45449736604 0.4915044461 0.52432611754 0.093902416448 0.17615329733 0.2478725152 0.31035131605 0.36486382811 0.41257334776 
0.45449736604 0.4915044461 0.52432611754 2.9637113136 2.7572056934 2.5352808365 2.3183572967 2.1243706857 1.9616239082 
1.829722181 1.7240926197 1.6393591329 2.9637113136 2.7572056934 2.5352808365 2.3183572967 2.1243706857 1.9616239082 
1.829722181 1.7240926197 1.6393591329 3.0476902371 2.9654393563 2.8937201384 2.8312413375 2.7767288255 2.7290193058 
2.6870952876 2.6500882075 2.617266536 3.0476902371 2.9654393563 2.8937201384 2.8312413375 2.7767288255 2.7290193058 
2.6870952876 2.6500882075 2.617266536 1.5707963268 1.5707963268 1.5707963268 1.5707963268 1.5707963268 1.5707963268 
1.5707963268 1.5707963268 1.5707963268 1.6743954455 1.7840462375 1.8974821136 2.0119052671 2.1243706857 2.232221744 
2.3334263672 2.426721652 2.5115728246 1.4671972081 1.3575464161 1.24411054 1.1296873865 1.0172219679 0.90937090954 
0.80816628637 0.71487100155 0.63001982895 1.6743954455 1.7840462375 1.8974821136 2.0119052671 2.1243706857 2.232221744 
2.3334263672 2.426721652 2.5115728246 1.4671972081 1.3575464161 1.24411054 1.1296873865 1.0172219679 0.90937090954 
0.80816628637 0.71487100155 0.63001982895 1.5707963268 1.5707963268 1.5707963268 1.5707963268 1.5707963268 1.5707963268 
1.5707963268 1.5707963268 1.5707963268 1.6743954455 1.7840462375 1.8974821136 2.0119052671 2.1243706857 2.232221744 
2.3334263672 2.426721652 2.5115728246 1.4671972081 1.3575464161 1.24411054 1.1296873865 1.0172219679 0.90937090954 
0.80816628637 0.71487100155 0.63001982895 1.6743954455 1.7840462375 1.8974821136 2.0119052671 2.1243706857 2.232221744 
2.3334263672 2.426721652 2.5115728246 1.4671972081 1.3575464161 1.24411054 1.1296873865 1.0172219679 0.90937090954 
0.80816628637 0.71487100155 0.63001982895 2.6824132222 2.7864913217 2.8992382033 3.0186096618 3.1415926536 3.0186096618 
2.8992382033 2.7864913217 2.6824132222 0.45917943135 0.35510133185 0.2423544503 0.12298299178 0 0.12298299178 
0.2423544503 0.35510133185 0.45917943135 0.22715816343 0.49462574053 0.3129712797 0.77059342779 0.68021497688 0.49462574053 
1.0172219679 1.0172219679 1.0172219679 1.0172219679 1.2156949949 1.271087727 1.3676273807 1.5707963268 2.1243706857 
1.3676273807 1.447813335 1.5707963268 1.7739652728 2.1243706857 2.6469669131 1.4827341049 1.5707963268 1.6937793186 
1.8705049266 2.1243706857 2.4613776767 2.8286213739 1.5707963268 1.6588585487 1.7739652728 1.9258976586 2.1243706857 
2.3709992258 2.6469669131 2.9144344902 0.26576171152 0.33975332011 0.45685295248 0.40226393329 0.51573716537 0.6552068806 
0.45538277901 0.56421707518 0.69407236469 0.84594095064 0.50083690068 0.60464862014 0.72561863695 0.86392567495 1.0172219679 
0.54002084522 0.63877777351 0.75168694275 0.87851444325 1.0172219679 1.1636342747 0.57404952988 0.66790778838 0.77356233629 
0.89058134991 1.0172219679 1.1502619915 1.2852923014 0.60381225391 0.69302191562 0.79216440667 0.90072551443 1.0172219679 
1.139116835 1.2630228569 1.3852070904 0.71487100155 0.80816628637 0.80816628637 0.90937090954 0.90937090954 0.90937090954 
1.0172219679 1.0172219679 1.0172219679 1.0172219679 1.1296873865 1.1296873865 1.1296873865 1.1296873865 1.1296873865 
1.24411054 1.24411054 1.24411054 1.24411054 1.24411054 1.24411054 1.3575464161 1.3575464161 1.3575464161 
1.3575464161 1.3575464161 1.3575464161 1.3575464161 1.4671972081 1.4671972081 1.4671972081 1.4671972081 1.4671972081 
1.4671972081 1.4671972081 1.4671972081 1.6743954455 1.6743954455 1.7840462375 1.6743954455 1.7840462375 1.8974821136 
1.6743954455 1.7840462375 1.8974821136 2.0119052671 1.6743954455 1.7840462375 1.8974821136 2.0119052671 2.1243706857 
1.6743954455 1.7840462375 1.8974821136 2.0119052671 2.1243706857 2.232221744 1.6743954455 1.7840462375 1.8974821136 
2.0119052671 2.1243706857 2.232221744 2.3334263672 1.6743954455 1.7840462375 1.8974821136 2.0119052671 2.1243706857 
2.232221744 2.3334263672 2.426721652 1.7563855631 1.8785697967 1.8563003522 2.0024758186 1.9913306621 1.9779583789 
2.1243706857 2.1243706857 2.1243706857 2.1243706857 2.2408671392 2.2510113037 2.2630782103 2.2776669786 2.295651703 
2.3494282469 2.3680303173 2.3899057108 2.4159740166 2.4475202889 2.486385773 2.448570738 2.4736848652 2.5028148801 
2.5369440334 2.5773755784 2.6258554882 2.6847397011 2.5377803997 2.5675431237 2.6015718084 2.6407557529 2.6862098746 
2.7393287203 2.8018393335 2.8758309421 2.718901062 2.8307207459 2.7598010554 2.95115522 2.8800620952 2.8058000847 
3.0774230472 3.00855263 2.9351694502 2.8576792927 3.0774230472 3.1415926536 3.0719036933 2.9967168029 2.91630358 
2.95115522 3.00855263 3.0719036933 3.1415926536 3.0653475414 2.9825888767 2.8307207459 2.8800620952 2.9351694502 
2.9967168029 3.0653475414 3.1415926536 3.0574329311 2.718901062 2.7598010554 2.8058000847 2.8576792927 2.91630358 
2.9825888767 3.0574329311 3.1415926536 2.718901062 2.7598010554 2.8307207459 2.8058000847 2.8800620952 2.95115522 
2.8576792927 2.9351694502 3.00855263 3.0774230472 2.91630358 2.9967168029 3.0719036933 3.1415926536 3.0774230472 
2.9825888767 3.0653475414 3.1415926536 3.0719036933 3.00855263 2.95115522 3.0574329311 3.1415926536 3.0653475414 