# vtk DataFile Version 5.1
vtk output
ASCII
DATASET POLYDATA
POINTS 1002 float
-8.529 -0.391124 -3.30644 8.64299 -0.542769 -3.12853 -7.84219 0.60557 3.48454 
7.50928 -0.693954 2.08159 -1.00815 1.67112 -1.99723 -1.52166 2.11121 1.53021 
-0.494353 -5.73365 -1.75787 0.221547 -6.4743 2.40306 13.8105 8.67518 1.20074 
-12.6175 7.4579 0.486544 13.7218 -2.34885 -0.17573 -12.3728 -3.41093 -0.0700308 
-7.35774 -0.706428 -3.28125 -6.00499 -1.06553 -3.27012 -4.51255 -1.4562 -3.28312 
-2.68531 -1.80729 -3.17841 -0.377304 -2.02072 -2.97913 2.04606 -2.03788 -2.94932 
4.13657 -1.83767 -3.06531 5.87358 -1.45474 -3.1108 7.37424 -0.995008 -3.10667 
-8.26268 0.0891201 -3.28024 -7.98275 0.604276 -3.25865 -7.71083 1.13389 -3.28837 
-7.28 1.64335 -3.27277 -6.54774 2.0415 -3.09122 -5.56209 2.24579 -2.82422 
-4.38391 2.27061 -2.61826 -3.12616 2.15196 -2.45844 -1.98423 1.92362 -2.25649 
-8.05452 -1.04248 -3.2827 -7.44061 -1.72442 -3.19657 -6.68982 -2.42705 -3.04691 
-5.87694 -3.10654 -2.87691 -5.01397 -3.73719 -2.71084 -4.05802 -4.3038 -2.52329 
-3.07346 -4.77285 -2.33021 -2.14781 -5.15003 -2.155 -1.28628 -5.46693 -1.96481 
-9.45278 0.250993 -3.28782 -10.3868 1.03166 -3.20412 -11.2866 1.95456 -3.00678 
-12.09 3.01664 -2.67394 -12.7576 4.16833 -2.28552 -13.2277 5.24766 -1.90664 
-13.4044 6.10651 -1.43848 -13.2895 6.74761 -0.809292 -12.9947 7.20673 -0.125525 
-9.2777 -0.507145 -3.25553 -9.94038 -0.649122 -3.08669 -10.6164 -0.840168 -2.89807 
-11.2986 -1.13946 -2.72304 -11.8038 -1.52025 -2.42751 -12.1354 -1.91293 -2.02606 
-12.418 -2.35827 -1.6271 -12.5867 -2.84054 -1.1628 -12.5538 -3.21085 -0.604902 
8.27922 -0.188799 -3.1522 7.80691 0.182048 -3.14674 7.25139 0.548125 -3.06467 
6.58857 0.864036 -2.89458 5.81681 1.09297 -2.67634 4.93669 1.14812 -2.416 
3.7756 1.01905 -2.13991 2.20445 0.946944 -1.97378 0.473905 1.17013 -1.96405 
8.14911 -1.19637 -3.09909 7.46771 -1.92373 -3.11979 6.5944 -2.70668 -3.14369 
5.57538 -3.4478 -3.06576 4.49161 -4.05284 -2.89296 3.39481 -4.5382 -2.6916 
2.31078 -4.94268 -2.45704 1.28537 -5.25904 -2.19866 0.350841 -5.5091 -1.96306 
9.59697 0.19039 -3.14039 10.5401 1.09899 -3.0025 11.5053 2.18544 -2.61612 
12.4807 3.44267 -2.04914 13.3699 4.85178 -1.48392 14.0614 6.24358 -1.03556 
14.4324 7.37587 -0.639472 14.4175 8.1638 -0.122345 14.1416 8.60514 0.548755 
9.52029 -0.499771 -3.09866 10.3334 -0.468061 -2.94813 11.1074 -0.411261 -2.67286 
11.9155 -0.377962 -2.38265 12.6625 -0.488474 -2.08682 13.155 -0.746299 -1.72023 
13.4581 -1.08921 -1.33463 13.7235 -1.51084 -0.967803 13.8585 -1.96181 -0.578716 
-6.67027 0.150297 3.61885 -5.25894 -0.339202 3.80331 -3.69407 -0.838357 3.87002 
-2.09169 -1.28864 3.66782 -0.418434 -1.59975 3.36414 1.3716 -1.72002 3.08092 
3.13228 -1.65285 2.71279 4.73453 -1.42806 2.34472 6.19145 -1.09178 2.14519 
-7.34602 0.884937 3.43403 -6.83857 1.15432 3.32564 -6.33495 1.45095 3.17621 
-5.77598 1.76461 3.02748 -5.11246 2.01633 2.88661 -4.37311 2.16808 2.69813 
-3.62581 2.25872 2.44739 -2.91028 2.29228 2.16961 -2.2162 2.2388 1.86556 
-7.59656 -0.0226497 3.52083 -7.13545 -0.830019 3.42213 -6.39159 -1.79082 3.23285 
-5.43728 -2.76198 3.10551 -4.36538 -3.66568 3.10365 -3.21592 -4.52742 3.10226 
-2.1089 -5.29684 3.01898 -1.18657 -5.87287 2.88611 -0.439217 -6.24178 2.6891 
-8.59907 1.25326 3.32739 -9.36809 1.98086 3.09562 -10.1445 2.76732 2.83434 
-10.8781 3.5934 2.59533 -11.5322 4.45313 2.35426 -12.0776 5.28192 2.09213 
-12.469 6.03373 1.82201 -12.6736 6.70665 1.48388 -12.7044 7.21445 1.02177 
-8.8056 0.65614 3.41958 -9.79465 0.590933 3.26844 -10.7832 0.355142 2.9683 
-11.6642 -0.040035 2.59892 -12.2926 -0.553572 2.2317 -12.6572 -1.1685 1.79349 
-12.8097 -1.85183 1.29577 -12.7667 -2.51615 0.83612 -12.5943 -3.05586 0.395431 
7.05041 -0.413454 2.04805 6.47712 -0.174038 2.01267 5.7582 0.0254557 1.93075 
4.88918 0.193523 1.82748 3.87036 0.347218 1.78461 2.70522 0.523496 1.78208 
1.48831 0.770766 1.7646 0.345835 1.13106 1.7335 -0.665958 1.59777 1.66385 
7.11425 -1.27487 2.16058 6.63027 -1.88591 2.2616 6.07262 -2.5179 2.35207 
5.44602 -3.2235 2.44062 4.73351 -3.98507 2.54567 3.93991 -4.68522 2.60535 
3.06885 -5.2902 2.59067 2.13137 -5.81434 2.56209 1.17174 -6.21325 2.51865 
8.52684 -0.0321191 2.03029 9.61269 0.763519 1.99096 10.7607 1.73069 2.02007 
11.8824 2.92786 2.17884 12.8307 4.27045 2.39326 13.5227 5.56179 2.5383 
13.9089 6.74265 2.53604 13.9999 7.7687 2.30116 13.9288 8.45022 1.8165 
8.54576 -0.627696 2.08688 9.56922 -0.594707 2.08115 10.5124 -0.633725 2.05529 
11.3776 -0.787225 1.96957 12.1718 -1.06197 1.77256 12.8173 -1.39082 1.50145 
13.2822 -1.69646 1.19637 13.6125 -1.96074 0.807857 13.7793 -2.18253 0.325365 
-1.21455 1.88671 -1.79544 -1.37685 2.11317 -1.52626 -1.48458 2.35454 -1.22419 
-1.55624 2.57148 -0.876441 -1.5878 2.74567 -0.437146 -1.5772 2.8486 0.0324181 
-1.56299 2.79903 0.442429 -1.5636 2.59727 0.816805 -1.55516 2.34636 1.18993 
0.979504 1.28232 -1.69598 3.41302 1.54238 -1.47477 5.72065 2.54662 -1.44378 
7.35823 3.88935 -1.43817 8.62496 5.05373 -1.20371 10.0498 5.95887 -0.756666 
11.4439 6.81462 -0.254744 12.478 7.67523 0.245136 13.2205 8.36415 0.737205 
-2.65958 2.60316 -2.11313 -3.98009 3.66983 -2.03172 -5.32968 4.54276 -1.80373 
-6.82684 5.27742 -1.55494 -8.11995 6.0079 -1.2707 -9.16947 6.61913 -0.930354 
-10.2168 7.0874 -0.588346 -11.1901 7.46618 -0.23544 -11.9702 7.62468 0.139812 
-0.162389 1.64649 1.24957 1.67196 1.37598 0.946321 3.99379 1.66693 0.758796 
6.46342 2.64395 0.790663 8.57153 3.96422 0.974212 10.1576 5.2493 1.1747 
11.3985 6.42649 1.34544 12.3863 7.48366 1.45583 13.1525 8.28309 1.42228 
-2.69501 2.76458 1.56269 -3.84886 3.48142 1.58266 -5.03389 4.29704 1.60937 
-6.1999 5.2128 1.60964 -7.31066 6.04635 1.57616 -8.47433 6.67002 1.51562 
-9.69721 7.17052 1.37819 -10.8227 7.55079 1.14041 -11.785 7.66169 0.834571 
-0.542689 -6.02769 -1.49181 -0.623324 -6.33837 -1.20877 -0.727789 -6.66342 -0.904373 
-0.820835 -6.97716 -0.463151 -0.852233 -7.19644 0.16633 -0.77199 -7.23288 0.785161 
-0.562526 -7.10359 1.24343 -0.276219 -6.90869 1.64372 0.00104268 -6.70353 2.05429 
0.801641 -5.85632 -1.71711 2.16561 -6.01459 -1.77849 3.57872 -6.14439 -1.90407 
5.19909 -6.03142 -1.99066 7.22935 -5.524 -1.99148 9.41101 -4.80287 -1.86228 
11.1464 -4.13185 -1.53295 12.2789 -3.53011 -1.06374 13.085 -2.93063 -0.592628 
-1.82452 -5.80492 -1.69134 -3.26017 -5.8569 -1.60941 -4.73082 -5.84376 -1.49498 
-6.16866 -5.76929 -1.38763 -7.54052 -5.66777 -1.30507 -8.82024 -5.47608 -1.17806 
-9.96487 -5.07483 -0.947946 -10.931 -4.51544 -0.651458 -11.7185 -3.9537 -0.350941 
1.51345 -6.55498 2.14677 2.94412 -6.64132 1.88297 4.44872 -6.61496 1.67482 
6.02628 -6.35459 1.44298 7.75289 -5.83904 1.1087 9.47372 -5.14712 0.76447 
10.8909 -4.41549 0.474847 12.0106 -3.71909 0.210053 12.9697 -3.03578 -0.0110676 
-1.22023 -6.57193 2.39439 -2.88359 -6.68433 2.29289 -4.64983 -6.71239 2.12819 
-6.31504 -6.53398 1.91769 -7.82296 -6.20018 1.66017 -9.16589 -5.79345 1.35949 
-10.2293 -5.24107 1.00717 -11.0335 -4.5621 0.623543 -11.7332 -3.92979 0.26065 
14.5513 8.54602 1.23683 15.2151 7.69485 1.15494 15.6489 6.21169 0.98063 
15.9049 4.64361 0.796622 15.9609 3.35707 0.616359 15.654 2.10266 0.404095 
15.1944 0.721249 0.215234 14.8223 -0.531481 0.0907589 14.3721 -1.52416 -0.0288854 
-13.4975 6.91238 0.429991 -14.3053 6.14491 0.335873 -14.8266 5.22665 0.199254 
-15.0425 4.09752 0.00507151 -15.0502 2.75504 -0.158376 -14.8449 1.29023 -0.188335 
-14.4285 -0.234701 -0.143727 -13.8421 -1.62768 -0.11495 -13.1267 -2.67328 -0.0977052 
-6.9989 -0.279392 -3.28175 -6.69447 0.170196 -3.34674 -5.61028 -0.70921 -3.35996 
-6.32086 0.627136 -3.38511 -5.17514 -0.355035 -3.44883 -3.93421 -1.18103 -3.36547 
-5.5941 0.998157 -3.21478 -4.38508 -0.0268874 -3.31543 -3.01668 -0.923293 -3.28115 
-1.64099 -1.56592 -3.12445 -4.5064 1.16458 -2.89693 -3.12795 0.19019 -2.95346 
-1.62107 -0.64542 -2.95604 -0.195261 -1.26672 -2.92484 1.03104 -1.68089 -2.92389 
-3.24012 1.17934 -2.64282 -1.6986 0.292788 -2.64681 -0.0671989 -0.338537 -2.64438 
1.36768 -0.816366 -2.70058 2.50715 -1.17276 -2.87021 3.40513 -1.49782 -3.019 
-1.89724 1.17616 -2.45497 -0.285466 0.432084 -2.45738 1.34904 0.0327029 -2.50193 
2.71816 -0.230982 -2.60144 3.78234 -0.495907 -2.82716 4.61478 -0.790272 -3.07071 
5.29898 -1.12785 -3.14732 -0.624347 1.17328 -2.22947 1.05224 0.670303 -2.23493 
2.64367 0.505213 -2.359 3.88757 0.442544 -2.54663 4.85566 0.271799 -2.77017 
5.65982 0.00588069 -3.01886 6.33231 -0.321367 -3.16172 6.90405 -0.67016 -3.15453 
-9.25969 0.853093 -3.25639 -10.2385 1.75868 -3.15766 -9.01771 1.47769 -3.21703 
-11.0981 2.77431 -2.91538 -9.97844 2.45832 -3.10279 -8.6819 2.07942 -3.21829 
-11.7982 3.88713 -2.54222 -10.736 3.50333 -2.81645 -9.50947 3.08457 -3.05233 
-8.10675 2.64312 -3.15416 -12.324 5.03644 -2.13972 -11.2607 4.6104 -2.37876 
-10.0815 4.10622 -2.65955 -8.74236 3.64679 -2.88561 -7.25882 3.09985 -2.92842 
-12.5813 6.04145 -1.70061 -11.5464 5.69083 -1.90357 -10.3799 5.12986 -2.1264 
-9.12056 4.56569 -2.39794 -7.7184 4.06003 -2.59866 -6.17181 3.33637 -2.66185 
-12.5313 6.7885 -1.13246 -11.5772 6.54914 -1.38922 -10.4546 6.05303 -1.61644 
-9.27396 5.40958 -1.87793 -7.95706 4.79873 -2.14154 -6.4679 4.19369 -2.35187 
-4.89718 3.29636 -2.47928 -12.2889 7.3104 -0.480081 -11.4256 7.1188 -0.811688 
-10.3784 6.70982 -1.11227 -9.27733 6.13855 -1.41747 -8.08637 5.44189 -1.70916 
-6.639 4.76705 -1.95806 -5.12792 4.03097 -2.19004 -3.6653 3.0136 -2.32476 
-11.0714 7.67593 0.437299 -9.97267 7.44018 0.69427 -10.1453 7.3628 0.0168836 
-8.69812 7.05435 0.925573 -8.89125 7.08711 0.264411 -9.05549 6.91544 -0.356235 
-7.47825 6.55894 1.10634 -7.63076 6.7106 0.500349 -7.8176 6.6024 -0.120107 
-8.01813 6.3907 -0.731612 -6.37638 5.8085 1.22234 -6.51567 6.1338 0.668445 
-6.64158 6.13092 0.0480007 -6.78388 5.98538 -0.551843 -6.86287 5.70321 -1.10419 
-5.18362 4.84797 1.2691 -5.29908 5.30812 0.780175 -5.37179 5.49457 0.157066 
-5.42181 5.4637 -0.44965 -5.43596 5.27777 -0.963485 -5.38199 4.9278 -1.40995 
-3.92535 3.92087 1.24856 -3.94626 4.38266 0.838857 -3.94358 4.70548 0.296685 
[...]
POINT_DATA 1002
FIELD FieldData 4
_paraPhi 1 1002 double
6.2831853072 3.1415926536 6.2831853072 3.1415926536 4.7123889804 4.7123889804 1.5707963268 1.5707963268 3.6951670125 
5.7296109483 2.5880182947 0.5535743589 6.2831853072 6.2831853072 6.2831853072 6.2831853072 3.1415926536 3.1415926536 
3.1415926536 3.1415926536 3.1415926536 6.1053039672 5.898798347 5.6768734901 5.4599499503 5.2659633393 5.1032165617 
4.9713148346 4.8656852733 4.7809517865 0.17788134 0.38438696014 0.60631181711 0.82323535693 1.0172219679 1.1799687454 
1.3118704726 1.4175000338 1.5022335207 6.1892828907 6.1070320098 6.035312792 5.9728339911 5.9183214791 5.8706119594 
5.8286879411 5.7916808611 5.7588591896 0.093902416448 0.17615329733 0.2478725152 0.31035131605 0.36486382811 0.41257334776 
0.45449736604 0.4915044461 0.52432611754 3.3194739936 3.5259796137 3.7479044707 3.9648280105 4.1588146215 4.321561399 
4.4534631262 4.5590926874 4.6438261743 2.9637113136 2.7572056934 2.5352808365 2.3183572967 2.1243706857 1.9616239082 
1.829722181 1.7240926197 1.6393591329 3.23549507 3.3177459509 3.3894651688 3.4519439696 3.5064564817 3.5541660013 
3.5960900196 3.6330970997 3.6659187711 3.0476902371 2.9654393563 2.8937201384 2.8312413375 2.7767288255 2.7290193058 
2.6870952876 2.6500882075 2.617266536 6.2831853072 6.2831853072 6.2831853072 6.2831853072 3.1415926536 3.1415926536 
3.1415926536 3.1415926536 3.1415926536 6.1053039672 5.898798347 5.6768734901 5.4599499503 5.2659633393 5.1032165617 
4.9713148346 4.8656852733 4.7809517865 0.17788134 0.38438696014 0.60631181711 0.82323535693 1.0172219679 1.1799687454 
1.3118704726 1.4175000338 1.5022335207 6.1892828907 6.1070320098 6.035312792 5.9728339911 5.9183214791 5.8706119594 
5.8286879411 5.7916808611 5.7588591896 0.093902416448 0.17615329733 0.2478725152 0.31035131605 0.36486382811 0.41257334776 
0.45449736604 0.4915044461 0.52432611754 3.3194739936 3.5259796137 3.7479044707 3.9648280105 4.1588146215 4.321561399 
4.4534631262 4.5590926874 4.6438261743 2.9637113136 2.7572056934 2.5352808365 2.3183572967 2.1243706857 1.9616239082 
1.829722181 1.7240926197 1.6393591329 3.23549507 3.3177459509 3.3894651688 3.4519439696 3.5064564817 3.5541660013 
3.5960900196 3.6330970997 3.6659187711 3.0476902371 2.9654393563 2.8937201384 2.8312413375 2.7767288255 2.7290193058 
2.6870952876 2.6500882075 2.617266536 4.7123889804 4.7123889804 4.7123889804 4.7123889804 4.7123889804 4.7123889804 
4.7123889804 4.7123889804 4.7123889804 4.6087898617 4.4991390697 4.3857031936 4.2712800401 4.1588146215 4.0509635631 
3.94975894 3.8564636551 3.7716124825 4.8159880991 4.9256388911 5.0390747672 5.1534979207 5.2659633393 5.3738143976 
5.4750190208 5.5683143056 5.6531654782 4.6087898617 4.4991390697 4.3857031936 4.2712800401 4.1588146215 4.0509635631 
3.94975894 3.8564636551 3.7716124825 4.8159880991 4.9256388911 5.0390747672 5.1534979207 5.2659633393 5.3738143976 
5.4750190208 5.5683143056 5.6531654782 1.5707963268 1.5707963268 1.5707963268 1.5707963268 1.5707963268 1.5707963268 
1.5707963268 1.5707963268 1.5707963268 1.6743954455 1.7840462375 1.8974821136 2.0119052671 2.1243706857 2.232221744 
2.3334263672 2.426721652 2.5115728246 1.4671972081 1.3575464161 1.24411054 1.1296873865 1.0172219679 0.90937090954 
0.80816628637 0.71487100155 0.63001982895 1.6743954455 1.7840462375 1.8974821136 2.0119052671 2.1243706857 2.232221744 
2.3334263672 2.426721652 2.5115728246 1.4671972081 1.3575464161 1.24411054 1.1296873865 1.0172219679 0.90937090954 
0.80816628637 0.71487100155 0.63001982895 3.6007720849 3.4966939854 3.3839471039 3.2645756454 3.1415926536 3.0186096618 
2.8992382033 2.7864913217 2.6824132222 5.8240058758 5.9280839753 6.0408308569 6.1602023154 6.2831853072 0.12298299178 
0.2423544503 0.35510133185 0.45917943135 6.0560271438 5.7885595667 5.9702140275 5.5125918794 5.6029703303 5.7885595667 
5.2659633393 5.2659633393 5.2659633393 5.2659633393 5.0674903122 5.0120975802 4.9155579264 4.7123889804 4.1588146215 
4.9155579264 4.8353719722 4.7123889804 4.5092200343 4.1588146215 3.6362183941 4.8004512023 4.7123889804 4.5894059886 
4.4126803806 4.1588146215 3.8218076305 3.4545639333 4.7123889804 4.6243267584 4.5092200343 4.3572876485 4.1588146215 
3.9121860814 3.6362183941 3.368750817 6.0174235957 5.9434319871 5.8263323547 5.8809213739 5.7674481418 5.6279784266 
5.8278025282 5.718968232 5.5891129425 5.4372443565 5.7823484065 5.678536687 5.5575666702 5.4192596322 5.2659633393 
5.743164462 5.6444075337 5.5314983644 5.4046708639 5.2659633393 5.1195510325 5.7091357773 5.6152775188 5.5096229709 
5.3926039573 5.2659633393 5.1329233157 4.9978930058 5.6793730533 5.5901633916 5.4910209005 5.3824597928 5.2659633393 
5.1440684722 5.0201624502 4.8979782167 5.5683143056 5.4750190208 5.4750190208 5.3738143976 5.3738143976 5.3738143976 
5.2659633393 5.2659633393 5.2659633393 5.2659633393 5.1534979207 5.1534979207 5.1534979207 5.1534979207 5.1534979207 
5.0390747672 5.0390747672 5.0390747672 5.0390747672 5.0390747672 5.0390747672 4.9256388911 4.9256388911 4.9256388911 
4.9256388911 4.9256388911 4.9256388911 4.9256388911 4.8159880991 4.8159880991 4.8159880991 4.8159880991 4.8159880991 
4.8159880991 4.8159880991 4.8159880991 4.6087898617 4.6087898617 4.4991390697 4.6087898617 4.4991390697 4.3857031936 
4.6087898617 4.4991390697 4.3857031936 4.2712800401 4.6087898617 4.4991390697 4.3857031936 4.2712800401 4.1588146215 
4.6087898617 4.4991390697 4.3857031936 4.2712800401 4.1588146215 4.0509635631 4.6087898617 4.4991390697 4.3857031936 
4.2712800401 4.1588146215 4.0509635631 3.94975894 4.6087898617 4.4991390697 4.3857031936 4.2712800401 4.1588146215 
4.0509635631 3.94975894 3.8564636551 4.526799744 4.4046155105 4.426884955 4.2807094886 4.2918546451 4.3052269283 
4.1588146215 4.1588146215 4.1588146215 4.1588146215 4.042318168 4.0321740035 4.0201070968 4.0055183285 3.9875336042 
3.9337570603 3.9151549899 3.8932795963 3.8672112905 3.8356650183 3.7967995342 3.8346145692 3.809500442 3.7803704271 
3.7462412737 3.7058097288 3.657329819 3.5984456061 3.7454049075 3.7156421835 3.6816134988 3.6424295543 3.5969754326 
3.5438565869 3.4813459737 3.4073543651 3.5642842451 3.4524645613 3.5233842518 3.3320300872 3.403123212 3.4773852225 
3.20576226 3.2746326772 3.348015857 3.4255060145 3.0774230472 3.1415926536 3.2112816139 3.2864685043 3.3668817272 
2.95115522 3.00855263 3.0719036933 3.1415926536 3.2178377658 3.3005964304 2.8307207459 2.8800620952 2.9351694502 
2.9967168029 3.0653475414 3.1415926536 3.225752376 2.718901062 2.7598010554 2.8058000847 2.8576792927 2.91630358 
2.9825888767 3.0574329311 3.1415926536 3.5642842451 3.5233842518 3.4524645613 3.4773852225 3.403123212 3.3320300872 
3.4255060145 3.348015857 3.2746326772 3.20576226 3.3668817272 3.2864685043 3.2112816139 3.1415926536 3.0774230472 
3.3005964304 3.2178377658 3.1415926536 3.0719036933 3.00855263 2.95115522 3.225752376 3.1415926536 3.0653475414 
2.9967168029 2.9351694502 2.8800620952 2.8307207459 3.1415926536 3.0574329311 2.9825888767 2.91630358 2.8576792927 
2.8058000847 2.7598010554 2.718901062 4.526799744 4.426884955 4.4046155105 4.3052269283 4.2918546451 4.2807094886 
4.1588146215 4.1588146215 4.1588146215 4.1588146215 3.9875336042 4.0055183285 4.0201070968 4.0321740035 4.042318168 
3.7967995342 3.8356650183 3.8672112905 3.8932795963 3.9151549899 3.9337570603 3.5984456061 3.657329819 3.7058097288 
3.7462412737 3.7803704271 3.809500442 3.8346145692 3.4073543651 3.4813459737 3.5438565869 3.5969754326 3.6424295543 
3.6816134988 3.7156421835 3.7454049075 4.7123889804 4.8004512023 4.6243267584 4.9155579264 4.7123889804 4.5092200343 
5.0674903122 4.8353719722 4.5894059886 4.3572876485 5.2659633393 5.0120975802 4.7123889804 4.4126803806 4.1588146215 
5.5125918794 5.2659633393 4.9155579264 4.5092200343 4.1588146215 3.9121860814 5.7885595667 5.6029703303 5.2659633393 
4.7123889804 4.1588146215 3.8218076305 3.6362183941 6.0560271438 5.9702140275 5.7885595667 5.2659633393 4.1588146215 
3.6362183941 3.4545639333 3.368750817 0.22715816343 0.49462574053 0.3129712797 0.77059342779 0.68021497688 0.49462574053 
1.0172219679 1.0172219679 1.0172219679 1.0172219679 1.2156949949 1.271087727 1.3676273807 1.5707963268 2.1243706857 
1.3676273807 1.447813335 1.5707963268 1.7739652728 2.1243706857 2.6469669131 1.4827341049 1.5707963268 1.6937793186 
1.8705049266 2.1243706857 2.4613776767 2.8286213739 1.5707963268 1.6588585487 1.7739652728 1.9258976586 2.1243706857 
2.3709992258 2.6469669131 2.9144344902 1.7563855631 1.8785697967 1.8563003522 2.0024758186 1.9913306621 1.9779583789 
2.1243706857 2.1243706857 2.1243706857 2.1243706857 2.2408671392 2.2510113037 2.2630782103 2.2776669786 2.295651703 
2.3494282469 2.3680303173 2.3899057108 2.4159740166 2.4475202889 2.486385773 2.448570738 2.4736848652 2.5028148801 
2.5369440334 2.5773755784 2.6258554882 2.6847397011 2.5377803997 2.5675431237 2.6015718084 2.6407557529 2.6862098746 
2.7393287203 2.8018393335 2.8758309421 1.6743954455 1.6743954455 1.7840462375 1.6743954455 1.7840462375 1.8974821136 
1.6743954455 1.7840462375 1.8974821136 2.0119052671 1.6743954455 1.7840462375 1.8974821136 2.0119052671 2.1243706857 
1.6743954455 1.7840462375 1.8974821136 2.0119052671 2.1243706857 2.232221744 1.6743954455 1.7840462375 1.8974821136 
2.0119052671 2.1243706857 2.232221744 2.3334263672 1.6743954455 1.7840462375 1.8974821136 2.0119052671 2.1243706857 
2.232221744 2.3334263672 2.426721652 1.4671972081 1.3575464161 1.4671972081 1.24411054 1.3575464161 1.4671972081 
1.1296873865 1.24411054 1.3575464161 1.4671972081 1.0172219679 1.1296873865 1.24411054 1.3575464161 1.4671972081 
0.90937090954 1.0172219679 1.1296873865 1.24411054 1.3575464161 1.4671972081 0.80816628637 0.90937090954 1.0172219679 
1.1296873865 1.24411054 1.3575464161 1.4671972081 0.71487100155 0.80816628637 0.90937090954 1.0172219679 1.1296873865 
1.24411054 1.3575464161 1.4671972081 0.60381225391 0.57404952988 0.69302191562 0.54002084522 0.66790778838 0.79216440667 
0.50083690068 0.63877777351 0.77356233629 0.90072551443 0.45538277901 0.60464862014 0.75168694275 0.89058134991 1.0172219679 
0.40226393329 0.56421707518 0.72561863695 0.87851444325 1.0172219679 1.139116835 0.33975332011 0.51573716537 0.69407236469 
0.86392567495 1.0172219679 1.1502619915 1.2630228569 0.26576171152 0.45685295248 0.6552068806 0.84594095064 1.0172219679 
1.1636342747 1.2852923014 1.3852070904 0.22715816343 0.3129712797 0.49462574053 0.49462574053 0.68021497688 0.77059342779 
1.0172219679 1.0172219679 1.0172219679 1.0172219679 2.1243706857 1.5707963268 1.3676273807 1.271087727 1.2156949949 
2.6469669131 2.1243706857 1.7739652728 1.5707963268 1.447813335 1.3676273807 2.8286213739 2.4613776767 2.1243706857 
1.8705049266 1.6937793186 1.5707963268 1.4827341049 2.9144344902 2.6469669131 2.3709992258 2.1243706857 1.9258976586 
1.7739652728 1.6588585487 1.5707963268 1.7563855631 1.8563003522 1.8785697967 1.9779583789 1.9913306621 2.0024758186 
2.1243706857 2.1243706857 2.1243706857 2.1243706857 2.295651703 2.2776669786 2.2630782103 2.2510113037 2.2408671392 
2.486385773 2.4475202889 2.4159740166 2.3899057108 2.3680303173 2.3494282469 2.6847397011 2.6258554882 2.5773755784 
2.5369440334 2.5028148801 2.4736848652 2.448570738 2.8758309421 2.8018393335 2.7393287203 2.6862098746 2.6407557529 
2.6015718084 2.5675431237 2.5377803997 5.8604937156 5.901393709 5.9723133995 5.9473927383 6.0216547488 6.0927478736 
5.9992719463 6.0767621038 6.1501452836 6.2190157008 6.0578962336 6.1383094565 6.2134963469 0 0.064169606361 
6.1241815303 6.206940195 6.2831853072 0.069688960264 0.13304002361 0.19043743361 6.1990255847 0 0.07624511221 
0.14487585072 0.20642320337 0.26153055843 0.3108719077 0 0.084159722458 0.15900377685 0.22528907359 0.28391336087 
0.3357925689 0.38179159818 0.42269159155 5.8604937156 5.9723133995 5.901393709 6.0927478736 6.0216547488 5.9473927383 
6.2190157008 6.1501452836 6.0767621038 5.9992719463 0.064169606361 0 6.2134963469 6.1383094565 6.0578962336 
0.19043743361 0.13304002361 0.069688960264 6.2831853072 6.206940195 6.1241815303 0.3108719077 0.26153055843 0.20642320337 
0.14487585072 0.07624511221 6.2831853072 6.1990255847 0.42269159155 0.38179159818 0.3357925689 0.28391336087 0.22528907359 
0.15900377685 0.084159722458 0 5.6793730533 5.7091357773 5.5901633916 5.743164462 5.6152775188 5.4910209005 
5.7823484065 5.6444075337 5.5096229709 5.3824597928 5.8278025282 5.678536687 5.5314983644 5.3926039573 5.2659633393 
5.8809213739 5.718968232 5.5575666702 5.4046708639 5.2659633393 5.1440684722 5.9434319871 5.7674481418 5.5891129425 
5.4192596322 5.2659633393 5.1329233157 5.0201624502 6.0174235957 5.8263323547 5.6279784266 5.4372443565 5.2659633393 
5.1195510325 4.9978930058 4.8979782167 1.3852070904 1.2852923014 1.2630228569 1.1636342747 1.1502619915 1.139116835 
1.0172219679 1.0172219679 1.0172219679 1.0172219679 0.84594095064 0.86392567495 0.87851444325 0.89058134991 0.90072551443 
0.6552068806 0.69407236469 0.72561863695 0.75168694275 0.77356233629 0.79216440667 0.45685295248 0.51573716537 0.56421707518 
0.60464862014 0.63877777351 0.66790778838 0.69302191562 0.26576171152 0.33975332011 0.40226393329 0.45538277901 0.50083690068 
0.54002084522 0.57404952988 0.60381225391 
_paraPhiHalf 1 1002 double
0 3.1415926536 0 3.1415926536 1.5707963268 1.5707963268 1.5707963268 1.5707963268 2.5880182947 
0.5535743589 2.5880182947 0.5535743589 0 0 0 0 3.1415926536 3.1415926536 
3.1415926536 3.1415926536 3.1415926536 0.17788134 0.38438696014 0.60631181711 0.82323535693 1.0172219679 1.1799687454 
1.3118704726 1.4175000338 1.5022335207 0.17788134 0.38438696014 0.60631181711 0.82323535693 1.0172219679 1.1799687454 
1.3118704726 1.4175000338 1.5022335207 0.093902416448 0.17615329733 0.2478725152 0.31035131605 0.36486382811 0.41257334776 
0.45449736604 0.4915044461 0.52432611754 0.093902416448 0.17615329733 0.2478725152 0.31035131605 0.36486382811 0.41257334776 
0.45449736604 0.4915044461 0.52432611754 2.9637113136 2.7572056934 2.5352808365 2.3183572967 2.1243706857 1.9616239082 
1.829722181 1.7240926197 1.6393591329 2.9637113136 2.7572056934 2.5352808365 2.3183572967 2.1243706857 1.9616239082 
1.829722181 1.7240926197 1.6393591329 3.0476902371 2.9654393563 2.8937201384 2.8312413375 2.7767288255 2.7290193058 
2.6870952876 2.6500882075 2.617266536 3.0476902371 2.9654393563 2.8937201384 2.8312413375 2.7767288255 2.7290193058 
2.6870952876 2.6500882075 2.617266536 0 0 0 0 3.1415926536 3.1415926536 
3.1415926536 3.1415926536 3.1415926536 0.17788134 0.38438696014 0.60631181711 0.82323535693 1.0172219679 1.1799687454 
1.3118704726 1.4175000338 1.5022335207 0.17788134 0.38438696014 0.60631181711 0.82323535693 1.0172219679 1.1799687454 
1.3118704726 1.4175000338 1.5022335207 0.093902416448 0.17615329733 0.2478725152 0.31035131605 0.36486382811 0.41257334776 
0.45449736604 0.4915044461 0.52432611754 0.093902416448 0.17615329733 0.2478725152 0.31035131605 0.36486382811 0.41257334776 
0.45449736604 0.4915044461 0.52432611754 2.9637113136 2.7572056934 2.5352808365 2.3183572967 2.1243706857 1.9616239082 
1.829722181 1.7240926197 1.6393591329 2.9637113136 2.7572056934 2.5352808365 2.3183572967 2.1243706857 1.9616239082 
1.829722181 1.7240926197 1.6393591329 3.0476902371 2.9654393563 2.8937201384 2.8312413375 2.7767288255 2.7290193058 
2.6870952876 2.6500882075 2.617266536 3.0476902371 2.9654393563 2.8937201384 2.8312413375 2.7767288255 2.7290193058 
2.6870952876 2.6500882075 2.617266536 1.5707963268 1.5707963268 1.5707963268 1.5707963268 1.5707963268 1.5707963268 
1.5707963268 1.5707963268 1.5707963268 1.6743954455 1.7840462375 1.8974821136 2.0119052671 2.1243706857 2.232221744 
2.3334263672 2.426721652 2.5115728246 1.4671972081 1.3575464161 1.24411054 1.1296873865 1.0172219679 0.90937090954 
0.80816628637 0.71487100155 0.63001982895 1.6743954455 1.7840462375 1.8974821136 2.0119052671 2.1243706857 2.232221744 
2.3334263672 2.426721652 2.5115728246 1.4671972081 1.3575464161 1.24411054 1.1296873865 1.0172219679 0.90937090954 
0.80816628637 0.71487100155 0.63001982895 1.5707963268 1.5707963268 1.5707963268 1.5707963268 1.5707963268 1.5707963268 
1.5707963268 1.5707963268 1.5707963268 1.6743954455 1.7840462375 1.8974821136 2.0119052671 2.1243706857 2.232221744 
2.3334263672 2.426721652 2.5115728246 1.4671972081 1.3575464161 1.24411054 1.1296873865 1.0172219679 0.90937090954 
0.80816628637 0.71487100155 0.63001982895 1.6743954455 1.7840462375 1.8974821136 2.0119052671 2.1243706857 2.232221744 
2.3334263672 2.426721652 2.5115728246 1.4671972081 1.3575464161 1.24411054 1.1296873865 1.0172219679 0.90937090954 
0.80816628637 0.71487100155 0.63001982895 2.6824132222 2.7864913217 2.8992382033 3.0186096618 3.1415926536 3.0186096618 
2.8992382033 2.7864913217 2.6824132222 0.45917943135 0.35510133185 0.2423544503 0.12298299178 0 0.12298299178 
0.2423544503 0.35510133185 0.45917943135 0.22715816343 0.49462574053 0.3129712797 0.77059342779 0.68021497688 0.49462574053 
1.0172219679 1.0172219679 1.0172219679 1.0172219679 1.2156949949 1.271087727 1.3676273807 1.5707963268 2.1243706857 
1.3676273807 1.447813335 1.5707963268 1.7739652728 2.1243706857 2.6469669131 1.4827341049 1.5707963268 1.6937793186 
1.8705049266 2.1243706857 2.4613776767 2.8286213739 1.5707963268 1.6588585487 1.7739652728 1.9258976586 2.1243706857 
2.3709992258 2.6469669131 2.9144344902 0.26576171152 0.33975332011 0.45685295248 0.40226393329 0.51573716537 0.6552068806 
0.45538277901 0.56421707518 0.69407236469 0.84594095064 0.50083690068 0.60464862014 0.72561863695 0.86392567495 1.0172219679 
0.54002084522 0.63877777351 0.75168694275 0.87851444325 1.0172219679 1.1636342747 0.57404952988 0.66790778838 0.77356233629 
0.89058134991 1.0172219679 1.1502619915 1.2852923014 0.60381225391 0.69302191562 0.79216440667 0.90072551443 1.0172219679 
1.139116835 1.2630228569 1.3852070904 0.71487100155 0.80816628637 0.80816628637 0.90937090954 0.90937090954 0.90937090954 
1.0172219679 1.0172219679 1.0172219679 1.0172219679 1.1296873865 1.1296873865 1.1296873865 1.1296873865 1.1296873865 
1.24411054 1.24411054 1.24411054 1.24411054 1.24411054 1.24411054 1.3575464161 1.3575464161 1.3575464161 
1.3575464161 1.3575464161 1.3575464161 1.3575464161 1.4671972081 1.4671972081 1.4671972081 1.4671972081 1.4671972081 
1.4671972081 1.4671972081 1.4671972081 1.6743954455 1.6743954455 1.7840462375 1.6743954455 1.7840462375 1.8974821136 
1.6743954455 1.7840462375 1.8974821136 2.0119052671 1.6743954455 1.7840462375 1.8974821136 2.0119052671 2.1243706857 
1.6743954455 1.7840462375 1.8974821136 2.0119052671 2.1243706857 2.232221744 1.6743954455 1.7840462375 1.8974821136 
2.0119052671 2.1243706857 2.232221744 2.3334263672 1.6743954455 1.7840462375 1.8974821136 2.0119052671 2.1243706857 
2.232221744 2.3334263672 2.426721652 1.7563855631 1.8785697967 1.8563003522 2.0024758186 1.9913306621 1.9779583789 
2.1243706857 2.1243706857 2.1243706857 2.1243706857 2.2408671392 2.2510113037 2.2630782103 2.2776669786 2.295651703 
2.3494282469 2.3680303173 2.3899057108 2.4159740166 2.4475202889 2.486385773 2.448570738 2.4736848652 2.5028148801 
2.5369440334 2.5773755784 2.6258554882 2.6847397011 2.5377803997 2.5675431237 2.6015718084 2.6407557529 2.6862098746 
2.7393287203 2.8018393335 2.8758309421 2.718901062 2.8307207459 2.7598010554 2.95115522 2.8800620952 2.8058000847 
3.0774230472 3.00855263 2.9351694502 2.8576792927 3.0774230472 3.1415926536 3.0719036933 2.9967168029 2.91630358 
2.95115522 3.00855263 3.0719036933 3.1415926536 3.0653475414 2.9825888767 2.8307207459 2.8800620952 2.9351694502 
2.9967168029 3.0653475414 3.1415926536 3.0574329311 2.718901062 2.7598010554 2.8058000847 2.8576792927 2.91630358 
2.9825888767 3.0574329311 3.1415926536 2.718901062 2.7598010554 2.8307207459 2.8058000847 2.8800620952 2.95115522 
2.8576792927 2.9351694502 3.00855263 3.0774230472 2.91630358 2.9967168029 3.0719036933 3.1415926536 3.0774230472 
2.9825888767 3.0653475414 3.1415926536 3.0719036933 3.00855263 2.95115522 3.0574329311 3.1415926536 3.0653475414 