# vtk DataFile Version 5.1
vtk output
ASCII
DATASET POLYDATA
POINTS 1002 float
-10.2688 -0.887497 -1.51477 -16.3024 -16.5612 -4.30246 -8.52269 -3.59975 4.74877 
-14.3988 -17.151 1.18226 -10.688 -8.64977 -2.10132 -9.20961 -9.28685 1.17911 
-17.9904 -7.14851 0.275586 -17.7497 -8.6777 4.42429 -7.87841 -25.268 -3.98628 
-0.700888 0.0493727 0.521751 -18.8711 -21.2023 -1.74906 -11.2452 2.77536 3.38244 
-10.9552 -1.77662 -1.62152 -11.738 -2.87297 -1.69583 -12.6067 -4.20582 -1.79034 
-13.5161 -5.87848 -1.9124 -14.4288 -7.95201 -2.05898 -15.2906 -10.1513 -2.37739 
-15.9394 -12.1189 -2.9203 -16.253 -13.8088 -3.48554 -16.3211 -15.2896 -3.93745 
-9.88753 -1.19655 -1.72231 -9.52391 -1.68852 -1.90141 -9.21808 -2.26681 -2.11125 
-8.93936 -2.7706 -2.35928 -8.70247 -3.38708 -2.55845 -8.70625 -4.42138 -2.65148 
-9.08588 -5.67236 -2.63547 -9.67551 -6.77036 -2.50233 -10.2361 -7.71082 -2.29433 
-11.0489 -1.19286 -1.319 -11.8723 -1.58559 -1.06379 -12.7803 -2.06193 -0.840751 
-13.7461 -2.63755 -0.681522 -14.6684 -3.31518 -0.499059 -15.4852 -4.09189 -0.284087 
-16.2035 -4.94098 -0.118499 -16.8558 -5.76606 0.0112028 -17.4574 -6.4947 0.149968 
-9.3203 -0.236018 -1.51019 -8.22762 0.402578 -1.49819 -7.01877 0.985029 -1.50954 
-5.68311 1.44175 -1.4879 -4.25285 1.69818 -1.38355 -2.93229 1.69519 -1.21407 
-1.91878 1.4543 -0.938065 -1.23035 1.07011 -0.505982 -0.8296 0.596021 0.0167488 
-10.1166 -0.245728 -1.25527 -9.99193 0.42842 -0.938265 -9.9273 1.09905 -0.593959 
-9.97434 1.68869 -0.195054 -10.1096 2.2088 0.29307 -10.2968 2.63367 0.841013 
-10.5636 2.87306 1.45539 -10.866 2.95729 2.14907 -11.0997 2.93351 2.82392 
-15.792 -16.3755 -4.34646 -15.1995 -16.1003 -4.36088 -14.6035 -15.7694 -4.25584 
-14.0909 -15.3649 -4.00097 -13.6062 -14.7607 -3.68997 -13.142 -13.8555 -3.30889 
-12.8082 -12.6704 -2.78542 -12.4368 -11.2785 -2.30056 -11.7189 -9.84949 -2.08398 
-16.7965 -15.8831 -4.02429 -17.2994 -15.0381 -3.67666 -17.76 -14.0811 -3.24601 
-18.0914 -13.0371 -2.76384 -18.2658 -11.9095 -2.25622 -18.3085 -10.7958 -1.70425 
-18.2476 -9.79407 -1.12783 -18.1447 -8.86552 -0.594441 -18.0596 -7.96882 -0.131312 
-15.9275 -17.6523 -4.66355 -15.3897 -18.7859 -4.96738 -14.6046 -20.0579 -5.12143 
-13.5965 -21.4712 -5.10939 -12.4684 -22.8472 -5.04701 -11.2777 -24.0072 -5.07024 
-10.095 -24.8402 -5.13544 -9.06127 -25.2743 -5.02542 -8.30323 -25.3678 -4.61157 
-16.584 -17.3817 -4.47678 -16.8772 -18.2316 -4.5956 -17.1372 -19.1064 -4.56532 
-17.3607 -19.9547 -4.37614 -17.6382 -20.6697 -4.12737 -17.9792 -21.1761 -3.83469 
-18.2749 -21.4802 -3.40019 -18.5119 -21.5912 -2.83224 -18.7244 -21.4906 -2.25645 
-9.25187 -4.50992 4.79202 -10.0206 -5.61148 4.83717 -10.8158 -6.85721 4.79795 
-11.687 -8.19674 4.53827 -12.6038 -9.66344 4.06232 -13.3882 -11.251 3.45877 
-13.9002 -12.8738 2.80921 -14.1756 -14.446 2.20634 -14.3226 -15.8866 1.67411 
-8.32306 -4.00765 4.48882 -8.07748 -4.51613 4.23601 -7.8973 -5.09211 3.94309 
-7.83475 -5.64432 3.55893 -7.82494 -6.22667 3.14915 -7.87758 -6.92524 2.78373 
-8.06618 -7.63533 2.40577 -8.36999 -8.24769 1.98223 -8.75047 -8.78238 1.56566 
-9.11065 -3.76183 5.06097 -9.8236 -3.99886 5.34671 -10.8555 -4.37203 5.4702 
-12.1315 -4.94209 5.4481 -13.3987 -5.68191 5.46323 -14.5937 -6.4605 5.50834 
-15.6811 -7.13603 5.3894 -16.5357 -7.68444 5.09423 -17.1837 -8.18273 4.75251 
-7.66208 -3.0086 4.52178 -6.69244 -2.39971 4.22128 -5.75066 -1.78994 3.81721 
-4.88663 -1.2378 3.35122 -3.92931 -0.768639 2.90603 -2.87898 -0.395744 2.52928 
-2.0085 -0.15335 2.17276 -1.39129 -0.0316922 1.72511 -0.94191 0.0232777 1.14829 
-8.20515 -2.80328 4.86577 -7.96443 -1.84163 4.92363 -7.87775 -0.71023 4.92122 
-7.98023 0.401743 4.88406 -8.29487 1.27516 4.77802 -8.81502 1.89567 4.58405 
-9.46118 2.34481 4.35664 -10.1338 2.64384 4.09846 -10.7494 2.78617 3.76902 
-14.0168 -16.8619 1.1268 -13.6778 -16.419 1.02489 -13.3024 -15.8123 0.952105 
-12.886 -15.0581 0.961054 -12.486 -14.1492 1.00869 -12.0571 -13.062 1.07918 
-11.5084 -11.8877 1.19553 -10.8227 -10.8152 1.29375 -10.033 -9.95113 1.29023 
-14.8425 -16.5938 1.48414 -15.3651 -15.9113 1.77408 -15.8789 -15.1242 2.12099 
-16.3406 -14.3178 2.55611 -16.7775 -13.4946 3.01323 -17.1675 -12.5735 3.42193 
-17.4558 -11.5839 3.76651 -17.6411 -10.6074 4.04336 -17.7365 -9.64325 4.25721 
-14.1473 -18.2585 0.650563 -13.7754 -19.5227 0.0875712 -13.1823 -20.9285 -0.38353 
-12.3074 -22.3567 -0.74512 -11.2584 -23.6488 -1.10155 -10.2053 -24.6776 -1.46432 
-9.22511 -25.3368 -1.87097 -8.42207 -25.5951 -2.48421 -7.95774 -25.5332 -3.27212 
-14.7207 -18.0147 0.893737 -15.0949 -18.8685 0.623128 -15.5029 -19.6661 0.380347 
-15.9921 -20.3294 0.101503 -16.5768 -20.8376 -0.198557 -17.1476 -21.217 -0.457254 
-17.6537 -21.4546 -0.739554 -18.1376 -21.5267 -1.09008 -18.5654 -21.4363 -1.43788 
-10.2852 -8.63085 -2.01865 -10.0005 -8.64329 -1.83104 -9.81963 -8.69013 -1.52712 
-9.5745 -8.77654 -1.21936 -9.20825 -8.90652 -0.962606 -8.89882 -9.03554 -0.623779 
-8.79566 -9.11558 -0.134974 -8.86688 -9.17064 0.382055 -9.02225 -9.23151 0.820858 
-11.6244 -10.6016 -2.02361 -12.0329 -13.1072 -2.35715 -11.7387 -15.4779 -3.03292 
-11.018 -17.2542 -3.64457 -10.3426 -18.8777 -3.9722 -9.80207 -20.677 -4.13991 
-9.17441 -22.2641 -4.24521 -8.47167 -23.4591 -4.28245 -7.97286 -24.4491 -4.21432 
-9.17333 -7.28697 -2.31947 -7.63388 -6.32323 -2.38805 -6.34108 -5.3378 -2.14506 
-5.06926 -4.22915 -1.83252 -3.69941 -3.34403 -1.62873 -2.54564 -2.60903 -1.37117 
-1.69365 -1.78009 -0.979182 -1.03562 -1.03639 -0.521759 -0.679248 -0.476771 -0.0130213 
-10.2653 -10.3701 0.805127 -11.1797 -12.1529 0.215955 -11.4705 -14.6837 -0.516885 
-11.0235 -17.3266 -1.18003 -10.2535 -19.452 -1.65448 -9.4791 -21.1418 -2.04508 
-8.71249 -22.591 -2.47307 -8.06414 -23.7322 -2.95649 -7.75391 -24.5926 -3.47784 
-8.06814 -8.43886 1.19457 -6.95827 -7.56526 1.13087 -5.83819 -6.63077 1.07457 
-4.6156 -5.74686 1.03911 -3.44586 -4.90018 0.989199 -2.49864 -3.97939 0.922273 
-1.70351 -2.9808 0.847672 -1.05956 -1.94186 0.762322 -0.71563 -0.908996 0.656291 
-18.2431 -7.07673 0.600352 -18.4487 -7.03312 0.984043 -18.5949 -7.01223 1.47717 
-18.7197 -7.00902 2.10368 -18.8026 -7.06209 2.76315 -18.7556 -7.23985 3.31575 
-18.5792 -7.56424 3.73764 -18.3414 -7.96779 4.06002 -18.0639 -8.35459 4.28524 
-18.5427 -8.34361 0.0988849 -19.1591 -9.64848 -0.181759 -19.8335 -10.9028 -0.523529 
-20.3791 -12.2722 -0.909058 -20.6078 -14.2097 -1.39139 -20.5799 -16.4684 -1.8297 
-20.3666 -18.2333 -1.96621 -19.939 -19.3754 -1.8668 -19.3916 -20.3128 -1.7752 
-17.5733 -5.9651 0.595858 -17.0685 -4.71297 0.954099 -16.509 -3.37325 1.37398 
-15.9292 -2.03802 1.77931 -15.3067 -0.844107 2.0946 -14.5988 0.1987 2.38797 
-13.7899 1.09483 2.71156 -12.9207 1.80618 2.99779 -12.0645 2.3543 3.21325 
-18.3646 -9.83082 3.99166 -19.0131 -11.1095 3.49788 -19.5395 -12.4585 2.91354 
-19.8894 -13.8268 2.2334 -20.076 -15.2697 1.47744 -20.068 -16.7937 0.716035 
-19.8991 -18.17 0.0130616 -19.6309 -19.2811 -0.641348 -19.2729 -20.2709 -1.24082 
-17.3765 -7.32943 4.78808 -16.9687 -5.84283 5.14676 -16.4607 -4.28888 5.37562 
-15.7926 -2.68278 5.40954 -15.035 -1.1159 5.34279 -14.2897 0.119762 5.18345 
-13.5229 0.944773 4.80953 -12.7014 1.61409 4.28805 -11.9164 2.25024 3.80042 
-8.44201 -25.9592 -4.0227 -9.62135 -26.24 -3.88152 -11.2506 -26.0873 -3.59007 
-12.8753 -25.8405 -3.31772 -14.2094 -25.4911 -3.11796 -15.4475 -24.7798 -2.8479 
-16.6787 -23.9471 -2.51003 -17.65 -23.179 -2.23434 -18.3154 -22.2656 -2.00544 
-1.00617 1.02588 0.749622 -1.53041 2.01888 0.94011 -2.28237 2.72154 1.11437 
-3.34492 3.14695 1.37589 -4.6993 3.57757 1.7483 -6.21665 3.92648 2.15379 
-7.76193 3.94055 2.5564 -9.15934 3.66988 2.92269 -10.3018 3.25786 3.19677 
-10.6724 -2.22992 -1.83174 -10.4236 -2.8538 -2.03926 -11.5504 -3.48172 -1.91191 
-10.2292 -3.43548 -2.30423 -11.4195 -4.17767 -2.15479 -12.4928 -4.97491 -1.98413 
-10.0869 -3.98353 -2.5518 -11.3985 -4.82453 -2.43898 -12.5023 -5.80448 -2.21679 
-13.4935 -6.87611 -2.06491 -10.0965 -4.9276 -2.63676 -11.4984 -5.75504 -2.59773 
-12.6778 -6.83383 -2.46062 -13.6331 -8.01495 -2.30813 -14.4952 -9.17592 -2.28829 
-10.4129 -6.28683 -2.55928 -11.7295 -7.21055 -2.53613 -12.8808 -8.37558 -2.55324 
-13.8085 -9.53898 -2.57461 -14.577 -10.5721 -2.65746 -15.2877 -11.4525 -2.79241 
-10.9485 -7.59101 -2.39367 -12.0618 -8.734 -2.39672 -12.9797 -10.0805 -2.5491 
-13.7811 -11.3141 -2.76222 -14.4627 -12.2074 -3.01816 -15.0814 -12.8592 -3.26782 
-15.6944 -13.3951 -3.41889 -11.4294 -8.72185 -2.20536 -12.3405 -10.0357 -2.30493 
-12.9546 -11.4697 -2.62722 -13.5226 -12.7675 -2.99509 -14.0999 -13.6889 -3.33387 
-14.6388 -14.2502 -3.66423 -15.2097 -14.6618 -3.88266 -15.7985 -15.0177 -3.94507 
-8.81291 -0.558524 -1.70888 -7.61354 0.0529579 -1.71246 -8.35857 -1.05883 -1.90133 
-6.30739 0.598317 -1.74538 -7.09183 -0.466552 -1.93498 -7.98752 -1.63431 -2.12792 
-4.86666 0.976061 -1.71971 -5.697 3.76102e-05 -1.97146 -6.67268 -1.11599 -2.16357 
-7.64452 -2.22075 -2.36081 -3.44169 1.04899 -1.5947 -4.19865 0.20074 -1.91357 
-5.25314 -0.844993 -2.15555 -6.35667 -1.90086 -2.34506 -7.40817 -3.0479 -2.53639 
-2.31096 0.824919 -1.37225 -2.90598 0.0866746 -1.7309 -3.85771 -0.872105 -2.01868 
-5.10123 -1.85856 -2.22885 -6.27685 -2.92165 -2.43277 -7.50225 -4.22078 -2.63332 
-1.51397 0.463937 -1.00922 -2.02936 -0.199697 -1.41912 -2.79973 -1.08553 -1.74937 
-3.96788 -2.01962 -1.98632 -5.30254 -2.96083 -2.17966 -6.52908 -4.135 -2.45445 
-7.9491 -5.43004 -2.63423 -0.961904 0.037309 -0.525139 -1.43348 -0.562494 -0.99408 
-2.13235 -1.37717 -1.38664 -3.11083 -2.27195 -1.68827 -4.4301 -3.11167 -1.87953 
-5.75981 -4.14683 -2.12937 -7.0229 -5.32433 -2.45015 -8.55257 -6.43448 -2.52046 
-0.821686 -1.48478 0.106327 -1.30925 -2.66148 0.199843 -1.32799 -2.20201 -0.439627 
-2.04402 -3.82017 0.277929 -1.91204 -3.4998 -0.394094 -2.11413 -3.02436 -0.954929 
-2.95239 -4.77267 0.365802 -2.73435 -4.57837 -0.320919 -2.81009 -4.17807 -0.925961 
-3.14655 -3.70014 -1.35247 -4.10184 -5.60854 0.461834 -3.80326 -5.45037 -0.187916 
-3.77682 -5.15207 -0.804869 -4.02409 -4.76318 -1.28765 -4.50053 -4.4471 -1.60142 
[...]
POINT_DATA 1002
FIELD FieldData 4
_paraPhi 1 1002 double
6.2831853072 3.1415926536 6.2831853072 3.1415926536 4.7123889804 4.7123889804 1.5707963268 1.5707963268 3.6951670125 
5.7296109483 2.5880182947 0.5535743589 6.2831853072 6.2831853072 6.2831853072 6.2831853072 3.1415926536 3.1415926536 
3.1415926536 3.1415926536 3.1415926536 6.1053039672 5.898798347 5.6768734901 5.4599499503 5.2659633393 5.1032165617 
4.9713148346 4.8656852733 4.7809517865 0.17788134 0.38438696014 0.60631181711 0.82323535693 1.0172219679 1.1799687454 
1.3118704726 1.4175000338 1.5022335207 6.1892828907 6.1070320098 6.035312792 5.9728339911 5.9183214791 5.8706119594 
5.8286879411 5.7916808611 5.7588591896 0.093902416448 0.17615329733 0.2478725152 0.31035131605 0.36486382811 0.41257334776 
0.45449736604 0.4915044461 0.52432611754 3.3194739936 3.5259796137 3.7479044707 3.9648280105 4.1588146215 4.321561399 
4.4534631262 4.5590926874 4.6438261743 2.9637113136 2.7572056934 2.5352808365 2.3183572967 2.1243706857 1.9616239082 
1.829722181 1.7240926197 1.6393591329 3.23549507 3.3177459509 3.3894651688 3.4519439696 3.5064564817 3.5541660013 
3.5960900196 3.6330970997 3.6659187711 3.0476902371 2.9654393563 2.8937201384 2.8312413375 2.7767288255 2.7290193058 
2.6870952876 2.6500882075 2.617266536 6.2831853072 6.2831853072 6.2831853072 6.2831853072 3.1415926536 3.1415926536 
3.1415926536 3.1415926536 3.1415926536 6.1053039672 5.898798347 5.6768734901 5.4599499503 5.2659633393 5.1032165617 
4.9713148346 4.8656852733 4.7809517865 0.17788134 0.38438696014 0.60631181711 0.82323535693 1.0172219679 1.1799687454 
1.3118704726 1.4175000338 1.5022335207 6.1892828907 6.1070320098 6.035312792 5.9728339911 5.9183214791 5.8706119594 
5.8286879411 5.7916808611 5.7588591896 0.093902416448 0.17615329733 0.2478725152 0.31035131605 0.36486382811 0.41257334776 
0.45449736604 0.4915044461 0.52432611754 3.3194739936 3.5259796137 3.7479044707 3.9648280105 4.1588146215 4.321561399 
4.4534631262 4.5590926874 4.6438261743 2.9637113136 2.7572056934 2.5352808365 2.3183572967 2.1243706857 1.9616239082 
1.829722181 1.7240926197 1.6393591329 3.23549507 3.3177459509 3.3894651688 3.4519439696 3.5064564817 3.5541660013 
3.5960900196 3.6330970997 3.6659187711 3.0476902371 2.9654393563 2.8937201384 2.8312413375 2.7767288255 2.7290193058 
2.6870952876 2.6500882075 2.617266536 4.7123889804 4.7123889804 4.7123889804 4.7123889804 4.7123889804 4.7123889804 
4.7123889804 4.7123889804 4.7123889804 4.6087898617 4.4991390697 4.3857031936 4.2712800401 4.1588146215 4.0509635631 
3.94975894 3.8564636551 3.7716124825 4.8159880991 4.9256388911 5.0390747672 5.1534979207 5.2659633393 5.3738143976 
5.4750190208 5.5683143056 5.6531654782 4.6087898617 4.4991390697 4.3857031936 4.2712800401 4.1588146215 4.0509635631 
3.94975894 3.8564636551 3.7716124825 4.8159880991 4.9256388911 5.0390747672 5.1534979207 5.2659633393 5.3738143976 
5.4750190208 5.5683143056 5.6531654782 1.5707963268 1.5707963268 1.5707963268 1.5707963268 1.5707963268 1.5707963268 
1.5707963268 1.5707963268 1.5707963268 1.6743954455 1.7840462375 1.8974821136 2.0119052671 2.1243706857 2.232221744 
2.3334263672 2.426721652 2.5115728246 1.4671972081 1.3575464161 1.24411054 1.1296873865 1.0172219679 0.90937090954 
0.80816628637 0.71487100155 0.63001982895 1.6743954455 1.7840462375 1.8974821136 2.0119052671 2.1243706857 2.232221744 
2.3334263672 2.426721652 2.5115728246 1.4671972081 1.3575464161 1.24411054 1.1296873865 1.0172219679 0.90937090954 
0.80816628637 0.71487100155 0.63001982895 3.6007720849 3.4966939854 3.3839471039 3.2645756454 3.1415926536 3.0186096618 
2.8992382033 2.7864913217 2.6824132222 5.8240058758 5.9280839753 6.0408308569 6.1602023154 6.2831853072 0.12298299178 
0.2423544503 0.35510133185 0.45917943135 6.0560271438 5.7885595667 5.9702140275 5.5125918794 5.6029703303 5.7885595667 
5.2659633393 5.2659633393 5.2659633393 5.2659633393 5.0674903122 5.0120975802 4.9155579264 4.7123889804 4.1588146215 
4.9155579264 4.8353719722 4.7123889804 4.5092200343 4.1588146215 3.6362183941 4.8004512023 4.7123889804 4.5894059886 
4.4126803806 4.1588146215 3.8218076305 3.4545639333 4.7123889804 4.6243267584 4.5092200343 4.3572876485 4.1588146215 
3.9121860814 3.6362183941 3.368750817 6.0174235957 5.9434319871 5.8263323547 5.8809213739 5.7674481418 5.6279784266 
5.8278025282 5.718968232 5.5891129425 5.4372443565 5.7823484065 5.678536687 5.5575666702 5.4192596322 5.2659633393 
5.743164462 5.6444075337 5.5314983644 5.4046708639 5.2659633393 5.1195510325 5.7091357773 5.6152775188 5.5096229709 
5.3926039573 5.2659633393 5.1329233157 4.9978930058 5.6793730533 5.5901633916 5.4910209005 5.3824597928 5.2659633393 
5.1440684722 5.0201624502 4.8979782167 5.5683143056 5.4750190208 5.4750190208 5.3738143976 5.3738143976 5.3738143976 
5.2659633393 5.2659633393 5.2659633393 5.2659633393 5.1534979207 5.1534979207 5.1534979207 5.1534979207 5.1534979207 
5.0390747672 5.0390747672 5.0390747672 5.0390747672 5.0390747672 5.0390747672 4.9256388911 4.9256388911 4.9256388911 
4.9256388911 4.9256388911 4.9256388911 4.9256388911 4.8159880991 4.8159880991 4.8159880991 4.8159880991 4.8159880991 
4.8159880991 4.8159880991 4.8159880991 4.6087898617 4.6087898617 4.4991390697 4.6087898617 4.4991390697 4.3857031936 
4.6087898617 4.4991390697 4.3857031936 4.2712800401 4.6087898617 4.4991390697 4.3857031936 4.2712800401 4.1588146215 
4.6087898617 4.4991390697 4.3857031936 4.2712800401 4.1588146215 4.0509635631 4.6087898617 4.4991390697 4.3857031936 
4.2712800401 4.1588146215 4.0509635631 3.94975894 4.6087898617 4.4991390697 4.3857031936 4.2712800401 4.1588146215 
4.0509635631 3.94975894 3.8564636551 4.526799744 4.4046155105 4.426884955 4.2807094886 4.2918546451 4.3052269283 
4.1588146215 4.1588146215 4.1588146215 4.1588146215 4.042318168 4.0321740035 4.0201070968 4.0055183285 3.9875336042 
3.9337570603 3.9151549899 3.8932795963 3.8672112905 3.8356650183 3.7967995342 3.8346145692 3.809500442 3.7803704271 
3.7462412737 3.7058097288 3.657329819 3.5984456061 3.7454049075 3.7156421835 3.6816134988 3.6424295543 3.5969754326 
3.5438565869 3.4813459737 3.4073543651 3.5642842451 3.4524645613 3.5233842518 3.3320300872 3.403123212 3.4773852225 
3.20576226 3.2746326772 3.348015857 3.4255060145 3.0774230472 3.1415926536 3.2112816139 3.2864685043 3.3668817272 
2.95115522 3.00855263 3.0719036933 3.1415926536 3.2178377658 3.3005964304 2.8307207459 2.8800620952 2.9351694502 
2.9967168029 3.0653475414 3.1415926536 3.225752376 2.718901062 2.7598010554 2.8058000847 2.8576792927 2.91630358 
2.9825888767 3.0574329311 3.1415926536 3.5642842451 3.5233842518 3.4524645613 3.4773852225 3.403123212 3.3320300872 
3.4255060145 3.348015857 3.2746326772 3.20576226 3.3668817272 3.2864685043 3.2112816139 3.1415926536 3.0774230472 
3.3005964304 3.2178377658 3.1415926536 3.0719036933 3.00855263 2.95115522 3.225752376 3.1415926536 3.0653475414 
2.9967168029 2.9351694502 2.8800620952 2.8307207459 3.1415926536 3.0574329311 2.9825888767 2.91630358 2.8576792927 
2.8058000847 2.7598010554 2.718901062 4.526799744 4.426884955 4.4046155105 4.3052269283 4.2918546451 4.2807094886 
4.1588146215 4.1588146215 4.1588146215 4.1588146215 3.9875336042 4.0055183285 4.0201070968 4.0321740035 4.042318168 
3.7967995342 3.8356650183 3.8672112905 3.8932795963 3.9151549899 3.9337570603 3.5984456061 3.657329819 3.7058097288 
3.7462412737 3.7803704271 3.809500442 3.8346145692 3.4073543651 3.4813459737 3.5438565869 3.5969754326 3.6424295543 
3.6816134988 3.7156421835 3.7454049075 4.7123889804 4.8004512023 4.6243267584 4.9155579264 4.7123889804 4.5092200343 
5.0674903122 4.8353719722 4.5894059886 4.3572876485 5.2659633393 5.0120975802 4.7123889804 4.4126803806 4.1588146215 
5.5125918794 5.2659633393 4.9155579264 4.5092200343 4.1588146215 3.9121860814 5.7885595667 5.6029703303 5.2659633393 
4.7123889804 4.1588146215 3.8218076305 3.6362183941 6.0560271438 5.9702140275 5.7885595667 5.2659633393 4.1588146215 
3.6362183941 3.4545639333 3.368750817 0.22715816343 0.49462574053 0.3129712797 0.77059342779 0.68021497688 0.49462574053 
1.0172219679 1.0172219679 1.0172219679 1.0172219679 1.2156949949 1.271087727 1.3676273807 1.5707963268 2.1243706857 
1.3676273807 1.447813335 1.5707963268 1.7739652728 2.1243706857 2.6469669131 1.4827341049 1.5707963268 1.6937793186 
1.8705049266 2.1243706857 2.4613776767 2.8286213739 1.5707963268 1.6588585487 1.7739652728 1.9258976586 2.1243706857 
2.3709992258 2.6469669131 2.9144344902 1.7563855631 1.8785697967 1.8563003522 2.0024758186 1.9913306621 1.9779583789 
2.1243706857 2.1243706857 2.1243706857 2.1243706857 2.2408671392 2.2510113037 2.2630782103 2.2776669786 2.295651703 
2.3494282469 2.3680303173 2.3899057108 2.4159740166 2.4475202889 2.486385773 2.448570738 2.4736848652 2.5028148801 
2.5369440334 2.5773755784 2.6258554882 2.6847397011 2.5377803997 2.5675431237 2.6015718084 2.6407557529 2.6862098746 
2.7393287203 2.8018393335 2.8758309421 1.6743954455 1.6743954455 1.7840462375 1.6743954455 1.7840462375 1.8974821136 
1.6743954455 1.7840462375 1.8974821136 2.0119052671 1.6743954455 1.7840462375 1.8974821136 2.0119052671 2.1243706857 
1.6743954455 1.7840462375 1.8974821136 2.0119052671 2.1243706857 2.232221744 1.6743954455 1.7840462375 1.8974821136 
2.0119052671 2.1243706857 2.232221744 2.3334263672 1.6743954455 1.7840462375 1.8974821136 2.0119052671 2.1243706857 
2.232221744 2.3334263672 2.426721652 1.4671972081 1.3575464161 1.4671972081 1.24411054 1.3575464161 1.4671972081 
1.1296873865 1.24411054 1.3575464161 1.4671972081 1.0172219679 1.1296873865 1.24411054 1.3575464161 1.4671972081 
0.90937090954 1.0172219679 1.1296873865 1.24411054 1.3575464161 1.4671972081 0.80816628637 0.90937090954 1.0172219679 
1.1296873865 1.24411054 1.3575464161 1.4671972081 0.71487100155 0.80816628637 0.90937090954 1.0172219679 1.1296873865 
1.24411054 1.3575464161 1.4671972081 0.60381225391 0.57404952988 0.69302191562 0.54002084522 0.66790778838 0.79216440667 
0.50083690068 0.63877777351 0.77356233629 0.90072551443 0.45538277901 0.60464862014 0.75168694275 0.89058134991 1.0172219679 
0.40226393329 0.56421707518 0.72561863695 0.87851444325 1.0172219679 1.139116835 0.33975332011 0.51573716537 0.69407236469 
0.86392567495 1.0172219679 1.1502619915 1.2630228569 0.26576171152 0.45685295248 0.6552068806 0.84594095064 1.0172219679 
1.1636342747 1.2852923014 1.3852070904 0.22715816343 0.3129712797 0.49462574053 0.49462574053 0.68021497688 0.77059342779 
1.0172219679 1.0172219679 1.0172219679 1.0172219679 2.1243706857 1.5707963268 1.3676273807 1.271087727 1.2156949949 
2.6469669131 2.1243706857 1.7739652728 1.5707963268 1.447813335 1.3676273807 2.8286213739 2.4613776767 2.1243706857 
1.8705049266 1.6937793186 1.5707963268 1.4827341049 2.9144344902 2.6469669131 2.3709992258 2.1243706857 1.9258976586 
1.7739652728 1.6588585487 1.5707963268 1.7563855631 1.8563003522 1.8785697967 1.9779583789 1.9913306621 2.0024758186 
2.1243706857 2.1243706857 2.1243706857 2.1243706857 2.295651703 2.2776669786 2.2630782103 2.2510113037 2.2408671392 
2.486385773 2.4475202889 2.4159740166 2.3899057108 2.3680303173 2.3494282469 2.6847397011 2.6258554882 2.5773755784 
2.5369440334 2.5028148801 2.4736848652 2.448570738 2.8758309421 2.8018393335 2.7393287203 2.6862098746 2.6407557529 
2.6015718084 2.5675431237 2.5377803997 5.8604937156 5.901393709 5.9723133995 5.9473927383 6.0216547488 6.0927478736 
5.9992719463 6.0767621038 6.1501452836 6.2190157008 6.0578962336 6.1383094565 6.2134963469 0 0.064169606361 
6.1241815303 6.206940195 6.2831853072 0.069688960264 0.13304002361 0.19043743361 6.1990255847 0 0.07624511221 
0.14487585072 0.20642320337 0.26153055843 0.3108719077 0 0.084159722458 0.15900377685 0.22528907359 0.28391336087 
0.3357925689 0.38179159818 0.42269159155 5.8604937156 5.9723133995 5.901393709 6.0927478736 6.0216547488 5.9473927383 
6.2190157008 6.1501452836 6.0767621038 5.9992719463 0.064169606361 0 6.2134963469 6.1383094565 6.0578962336 
0.19043743361 0.13304002361 0.069688960264 6.2831853072 6.206940195 6.1241815303 0.3108719077 0.26153055843 0.20642320337 
0.14487585072 0.07624511221 6.2831853072 6.1990255847 0.42269159155 0.38179159818 0.3357925689 0.28391336087 0.22528907359 
0.15900377685 0.084159722458 0 5.6793730533 5.7091357773 5.5901633916 5.743164462 5.6152775188 5.4910209005 
5.7823484065 5.6444075337 5.5096229709 5.3824597928 5.8278025282 5.678536687 5.5314983644 5.3926039573 5.2659633393 
5.8809213739 5.718968232 5.5575666702 5.4046708639 5.2659633393 5.1440684722 5.9434319871 5.7674481418 5.5891129425 
5.4192596322 5.2659633393 5.1329233157 5.0201624502 6.0174235957 5.8263323547 5.6279784266 5.4372443565 5.2659633393 
5.1195510325 4.9978930058 4.8979782167 1.3852070904 1.2852923014 1.2630228569 1.1636342747 1.1502619915 1.139116835 
1.0172219679 1.0172219679 1.0172219679 1.0172219679 0.84594095064 0.86392567495 0.87851444325 0.89058134991 0.90072551443 
0.6552068806 0.69407236469 0.72561863695 0.75168694275 0.77356233629 0.79216440667 0.45685295248 0.51573716537 0.56421707518 
0.60464862014 0.63877777351 0.66790778838 0.69302191562 0.26576171152 0.33975332011 0.40226393329 0.45538277901 0.50083690068 
0.54002084522 0.57404952988 0.60381225391 
_paraPhiHalf 1 1002 double
0 3.1415926536 0 3.1415926536 1.5707963268 1.5707963268 1.5707963268 1.5707963268 2.5880182947 
0.5535743589 2.5880182947 0.5535743589 0 0 0 0 3.1415926536 3.1415926536 
3.1415926536 3.1415926536 3.1415926536 0.17788134 0.38438696014 0.60631181711 0.82323535693 1.0172219679 1.1799687454 
1.3118704726 1.4175000338 1.5022335207 0.17788134 0.38438696014 0.60631181711 0.82323535693 1.0172219679 1.1799687454 
1.3118704726 1.4175000338 1.5022335207 0.093902416448 0.17615329733 0.2478725152 0.31035131605 0.36486382811 0.41257334776 
0.45449736604 0.4915044461 0.52432611754 0.093902416448 0.17615329733 0.2478725152 0.31035131605 0.36486382811 0.41257334776 
0.45449736604 0.4915044461 0.52432611754 2.9637113136 2.7572056934 2.5352808365 2.3183572967 2.1243706857 1.9616239082 
1.829722181 1.7240926197 1.6393591329 2.9637113136 2.7572056934 2.5352808365 2.3183572967 2.1243706857 1.9616239082 
1.829722181 1.7240926197 1.6393591329 3.0476902371 2.9654393563 2.8937201384 2.8312413375 2.7767288255 2.7290193058 
2.6870952876 2.6500882075 2.617266536 3.0476902371 2.9654393563 2.8937201384 2.8312413375 2.7767288255 2.7290193058 
2.6870952876 2.6500882075 2.617266536 0 0 0 0 3.1415926536 3.1415926536 
3.1415926536 3.1415926536 3.1415926536 0.17788134 0.38438696014 0.60631181711 0.82323535693 1.0172219679 1.1799687454 
1.3118704726 1.4175000338 1.5022335207 0.17788134 0.38438696014 0.60631181711 0.82323535693 1.0172219679 1.1799687454 
1.3118704726 1.4175000338 1.5022335207 0.093902416448 0.17615329733 0.2478725152 0.31035131605 0.36486382811 0.41257334776 
0.45449736604 0.4915044461 0.52432611754 0.093902416448 0.17615329733 0.2478725152 0.31035131605 0.36486382811 0.41257334776 
0.45449736604 0.4915044461 0.52432611754 2.9637113136 2.7572056934 2.5352808365 2.3183572967 2.1243706857 1.9616239082 
1.829722181 1.7240926197 1.6393591329 2.9637113136 2.7572056934 2.5352808365 2.3183572967 2.1243706857 1.9616239082 
1.829722181 1.7240926197 1.6393591329 3.0476902371 2.9654393563 2.8937201384 2.8312413375 2.7767288255 2.7290193058 
2.6870952876 2.6500882075 2.617266536 3.0476902371 2.9654393563 2.8937201384 2.8312413375 2.7767288255 2.7290193058 
2.6870952876 2.6500882075 2.617266536 1.5707963268 1.5707963268 1.5707963268 1.5707963268 1.5707963268 1.5707963268 
1.5707963268 1.5707963268 1.5707963268 1.6743954455 1.7840462375 1.8974821136 2.0119052671 2.1243706857 2.232221744 
2.3334263672 2.426721652 2.5115728246 1.4671972081 1.3575464161 1.24411054 1.1296873865 1.0172219679 0.90937090954 
0.80816628637 0.71487100155 0.63001982895 1.6743954455 1.7840462375 1.8974821136 2.0119052671 2.1243706857 2.232221744 
2.3334263672 2.426721652 2.5115728246 1.4671972081 1.3575464161 1.24411054 1.1296873865 1.0172219679 0.90937090954 
0.80816628637 0.71487100155 0.63001982895 1.5707963268 1.5707963268 1.5707963268 1.5707963268 1.5707963268 1.5707963268 
1.5707963268 1.5707963268 1.5707963268 1.6743954455 1.7840462375 1.8974821136 2.0119052671 2.1243706857 2.232221744 
2.3334263672 2.426721652 2.5115728246 1.4671972081 1.3575464161 1.24411054 1.1296873865 1.0172219679 0.90937090954 
0.80816628637 0.71487100155 0.63001982895 1.6743954455 1.7840462375 1.8974821136 2.0119052671 2.1243706857 2.232221744 
2.3334263672 2.426721652 2.5115728246 1.4671972081 1.3575464161 1.24411054 1.1296873865 1.0172219679 0.90937090954 
0.80816628637 0.71487100155 0.63001982895 2.6824132222 2.7864913217 2.8992382033 3.0186096618 3.1415926536 3.0186096618 
2.8992382033 2.7864913217 2.6824132222 0.45917943135 0.35510133185 0.2423544503 0.12298299178 0 0.12298299178 
0.2423544503 0.35510133185 0.45917943135 0.22715816343 0.49462574053 0.3129712797 0.77059342779 0.68021497688 0.49462574053 
1.0172219679 1.0172219679 1.0172219679 1.0172219679 1.2156949949 1.271087727 1.3676273807 1.5707963268 2.1243706857 
1.3676273807 1.447813335 1.5707963268 1.7739652728 2.1243706857 2.6469669131 1.4827341049 1.5707963268 1.6937793186 
1.8705049266 2.1243706857 2.4613776767 2.8286213739 1.5707963268 1.6588585487 1.7739652728 1.9258976586 2.1243706857 
2.3709992258 2.6469669131 2.9144344902 0.26576171152 0.33975332011 0.45685295248 0.40226393329 0.51573716537 0.6552068806 
0.45538277901 0.56421707518 0.69407236469 0.84594095064 0.50083690068 0.60464862014 0.72561863695 0.86392567495 1.0172219679 
0.54002084522 0.63877777351 0.75168694275 0.87851444325 1.0172219679 1.1636342747 0.57404952988 0.66790778838 0.77356233629 
0.89058134991 1.0172219679 1.1502619915 1.2852923014 0.60381225391 0.69302191562 0.79216440667 0.90072551443 1.0172219679 
1.139116835 1.2630228569 1.3852070904 0.71487100155 0.80816628637 0.80816628637 0.90937090954 0.90937090954 0.90937090954 
1.0172219679 1.0172219679 1.0172219679 1.0172219679 1.1296873865 1.1296873865 1.1296873865 1.1296873865 1.1296873865 
1.24411054 1.24411054 1.24411054 1.24411054 1.24411054 1.24411054 1.3575464161 1.3575464161 1.3575464161 
1.3575464161 1.3575464161 1.3575464161 1.3575464161 1.4671972081 1.4671972081 1.4671972081 1.4671972081 1.4671972081 
1.4671972081 1.4671972081 1.4671972081 1.6743954455 1.6743954455 1.7840462375 1.6743954455 1.7840462375 1.8974821136 
1.6743954455 1.7840462375 1.8974821136 2.0119052671 1.6743954455 1.7840462375 1.8974821136 2.0119052671 2.1243706857 
1.6743954455 1.7840462375 1.8974821136 2.0119052671 2.1243706857 2.232221744 1.6743954455 1.7840462375 1.8974821136 
2.0119052671 2.1243706857 2.232221744 2.3334263672 1.6743954455 1.7840462375 1.8974821136 2.0119052671 2.1243706857 
2.232221744 2.3334263672 2.426721652 1.7563855631 1.8785697967 1.8563003522 2.0024758186 1.9913306621 1.9779583789 
2.1243706857 2.1243706857 2.1243706857 2.1243706857 2.2408671392 2.2510113037 2.2630782103 2.2776669786 2.295651703 
2.3494282469 2.3680303173 2.3899057108 2.4159740166 2.4475202889 2.486385773 2.448570738 2.4736848652 2.5028148801 
2.5369440334 2.5773755784 2.6258554882 2.6847397011 2.5377803997 2.5675431237 2.6015718084 2.6407557529 2.6862098746 
2.7393287203 2.8018393335 2.8758309421 2.718901062 2.8307207459 2.7598010554 2.95115522 2.8800620952 2.8058000847 
3.0774230472 3.00855263 2.9351694502 2.8576792927 3.0774230472 3.1415926536 3.0719036933 2.9967168029 2.91630358 
2.95115522 3.00855263 3.0719036933 3.1415926536 3.0653475414 2.9825888767 2.8307207459 2.8800620952 2.9351694502 
2.9967168029 3.0653475414 3.1415926536 3.0574329311 2.718901062 2.7598010554 2.8058000847 2.8576792927 2.91630358 
2.9825888767 3.0574329311 3.1415926536 2.718901062 2.7598010554 2.8307207459 2.8058000847 2.8800620952 2.95115522 
2.8576792927 2.9351694502 3.00855263 3.0774230472 2.91630358 2.9967168029 3.0719036933 3.1415926536 3.0774230472 
2.9825888767 3.0653475414 3.1415926536 3.0719036933 3.00855263 2.95115522 3.0574329311 3.1415926536 3.0653475414 