# vtk DataFile Version 5.1
vtk output
ASCII
DATASET POLYDATA
POINTS 1002 float
-8.78643 -0.277576 -3.43558 9.08365 -0.674025 -3.16287 -8.18073 0.375405 3.45537 
8.12877 -0.428694 2.47798 -1.53287 2.42478 -2.40689 -1.15844 2.39531 1.44583 
-0.508475 -5.6779 -2.04712 0.0389312 -6.30319 2.27253 15.9255 8.14955 1.36784 
-13.5572 7.28999 1.02285 14.5918 -2.28423 -0.0991224 -12.9348 -3.63791 -0.127498 
-7.65745 -0.52652 -3.47784 -6.33043 -0.825993 -3.52498 -4.78959 -1.16457 -3.57738 
-2.984 -1.49837 -3.59629 -0.863145 -1.77015 -3.53005 1.48001 -1.8564 -3.38926 
3.80904 -1.68537 -3.26649 5.89654 -1.37429 -3.22988 7.64297 -1.04177 -3.22818 
-8.5293 0.168035 -3.5208 -8.2109 0.653074 -3.62957 -7.8407 1.20254 -3.63746 
-7.30595 1.76878 -3.48982 -6.51021 2.26939 -3.37791 -5.59524 2.65079 -3.39299 
-4.70956 2.83516 -3.30987 -3.75973 2.7913 -3.01791 -2.66439 2.61841 -2.6746 
-8.30218 -0.894696 -3.40837 -7.67363 -1.60869 -3.40075 -6.89928 -2.3673 -3.36878 
-6.04252 -3.05086 -3.25257 -5.15072 -3.65972 -3.07965 -4.20853 -4.2474 -2.9064 
-3.21457 -4.7394 -2.70757 -2.23174 -5.09085 -2.46532 -1.32387 -5.38387 -2.23252 
-9.73322 0.292844 -3.40161 -10.7652 1.0531 -3.2635 -11.8092 1.98648 -2.97828 
-12.7457 2.99181 -2.55438 -13.5277 4.06423 -2.05625 -14.1027 5.17157 -1.56757 
-14.3577 6.09606 -1.04016 -14.2819 6.71122 -0.369801 -13.9812 7.08815 0.371707 
-9.55475 -0.431166 -3.36709 -10.2972 -0.635061 -3.25709 -11.0008 -0.888794 -3.06708 
-11.6363 -1.22022 -2.81068 -12.177 -1.63129 -2.50197 -12.627 -2.0594 -2.13896 
-12.9474 -2.48492 -1.72837 -13.0827 -2.93423 -1.2457 -13.0591 -3.35104 -0.687439 
8.79767 -0.284791 -3.17941 8.36863 0.118372 -3.12067 7.74341 0.474981 -3.00947 
6.8407 0.769839 -2.93315 5.67589 0.991581 -2.88856 4.34307 1.0643 -2.7844 
2.84001 1.07587 -2.6349 1.20782 1.29273 -2.52768 -0.319645 1.79287 -2.46974 
8.41428 -1.30325 -3.19144 7.56039 -1.99174 -3.25226 6.53451 -2.71828 -3.31576 
5.43953 -3.35049 -3.25914 4.36357 -3.85461 -3.0566 3.29069 -4.34121 -2.84357 
2.21568 -4.80365 -2.69358 1.20688 -5.1582 -2.52798 0.303641 -5.4306 -2.29645 
10.3071 0.0782615 -3.0058 11.6355 1.11598 -2.6877 12.9581 2.32565 -2.30357 
14.0609 3.48747 -1.98317 14.9799 4.64189 -1.62857 15.8809 5.91658 -1.14025 
16.5494 7.08626 -0.604442 16.6869 7.85471 -0.0025135 16.3923 8.182 0.707011 
10.0343 -0.631606 -3.02321 10.9721 -0.565918 -2.83505 11.8891 -0.558049 -2.67203 
12.7421 -0.638843 -2.48129 13.4509 -0.726378 -2.13254 14.0166 -0.830474 -1.72428 
14.4879 -1.08133 -1.41409 14.8005 -1.47568 -1.08689 14.8373 -1.89582 -0.618778 
-7.02884 -0.0138133 3.50979 -5.68642 -0.389134 3.62232 -4.17124 -0.738648 3.6668 
-2.49921 -1.09468 3.49975 -0.636759 -1.42148 3.22885 1.36028 -1.59812 2.97127 
3.30291 -1.55619 2.67748 5.08804 -1.30429 2.44411 6.71056 -0.895227 2.40932 
-7.77359 0.77475 3.44654 -7.26052 1.18652 3.43167 -6.65625 1.55303 3.32307 
-6.01118 1.84289 3.11139 -5.29388 2.07051 2.85625 -4.47607 2.25323 2.58111 
-3.64095 2.38793 2.31029 -2.82456 2.46257 2.05681 -1.98895 2.46373 1.77496 
-7.86282 -0.237545 3.54535 -7.51323 -0.844495 3.70963 -7.08594 -1.52047 3.7962 
-6.39562 -2.36704 3.62357 -5.36352 -3.30252 3.29182 -4.14792 -4.12481 3.07606 
-2.90292 -4.81462 2.99106 -1.72725 -5.44874 2.84638 -0.736957 -5.96949 2.58231 
-9.01898 1.04348 3.41325 -9.83955 1.78189 3.31312 -10.62 2.54094 3.10043 
-11.3628 3.33916 2.85387 -12.0628 4.19646 2.66068 -12.6798 5.04266 2.50209 
-13.1505 5.81303 2.31692 -13.4417 6.4892 2.02531 -13.5678 7.00797 1.57648 
-9.10464 0.350676 3.44746 -10.1009 0.226298 3.35766 -11.0933 -0.0474903 3.11286 
-11.9636 -0.457501 2.75073 -12.6847 -0.966042 2.33378 -13.2606 -1.52629 1.88777 
-13.5756 -2.10687 1.43396 -13.5527 -2.70923 0.946123 -13.2923 -3.26143 0.405357 
7.62994 -0.171074 2.40988 7.00298 0.0510613 2.29418 6.23716 0.232211 2.18267 
5.31707 0.395143 2.07652 4.24171 0.579527 1.94202 3.05624 0.790002 1.82242 
1.85583 1.05363 1.75449 0.736282 1.43577 1.68669 -0.265707 1.91335 1.58071 
7.71473 -1.02521 2.45739 7.20312 -1.70282 2.42957 6.60948 -2.42725 2.43788 
5.92821 -3.12763 2.48605 5.13114 -3.79053 2.53522 4.2239 -4.44623 2.54358 
3.23178 -5.05208 2.51766 2.16458 -5.55913 2.47835 1.07009 -5.9768 2.40393 
9.15671 0.246585 2.46776 10.1726 1.0136 2.34118 11.2247 1.89478 2.2488 
12.3288 2.92177 2.35845 13.3526 4.04582 2.47222 14.2226 5.13362 2.43057 
14.9615 6.11737 2.42393 15.5026 7.00421 2.3799 15.804 7.72408 2.00809 
9.2013 -0.335572 2.4927 10.2489 -0.314527 2.42252 11.2608 -0.388387 2.34144 
12.2278 -0.590668 2.26254 13.075 -0.94042 2.06592 13.7327 -1.35488 1.75481 
14.2376 -1.72946 1.4244 14.6063 -2.02197 1.02019 14.7463 -2.20153 0.486889 
-1.4944 2.67415 -2.19046 -1.46702 2.84693 -1.89679 -1.46032 2.99124 -1.53793 
-1.45156 3.15397 -1.16779 -1.41032 3.23535 -0.760776 -1.35376 3.13959 -0.260513 
-1.30537 2.95447 0.26475 -1.25081 2.7801 0.724227 -1.19382 2.60506 1.11427 
0.401303 1.94981 -2.23811 2.65399 1.9077 -2.05434 5.06535 2.4811 -1.77913 
7.41204 3.55007 -1.4337 9.46541 4.75379 -1.09152 11.2717 5.79855 -0.686137 
12.9895 6.72325 -0.179199 14.435 7.58215 0.334606 15.3808 8.12782 0.839773 
-3.14463 3.27923 -2.44506 -4.57489 4.13768 -2.36002 -5.9745 4.83761 -2.06534 
-7.39949 5.47598 -1.62946 -8.74341 6.12392 -1.16955 -9.97942 6.65775 -0.69668 
-11.1153 7.05544 -0.227304 -12.0949 7.37394 0.210123 -12.9036 7.4964 0.634339 
0.270869 2.04042 1.17502 1.92462 1.88381 0.928784 3.88394 2.11182 0.783325 
6.13157 2.7618 0.779571 8.38187 3.77549 0.952138 10.4338 5.01772 1.22116 
12.3128 6.23864 1.42216 13.9007 7.23335 1.51951 15.0687 7.89554 1.52074 
-2.52965 2.96875 1.4888 -3.92284 3.60413 1.46043 -5.29602 4.30097 1.40643 
-6.6688 5.11168 1.46625 -8.02705 5.97204 1.64286 -9.29165 6.69526 1.73454 
-10.4688 7.1995 1.66129 -11.6053 7.49088 1.52003 -12.6566 7.52449 1.32556 
-0.514617 -6.01644 -1.784 -0.536302 -6.33269 -1.46579 -0.568227 -6.60788 -1.0307 
-0.577228 -6.89118 -0.473357 -0.54658 -7.09834 0.104321 -0.504239 -7.04994 0.628214 
-0.445756 -6.84707 1.11442 -0.326698 -6.70018 1.56437 -0.148506 -6.5609 1.95265 
0.805877 -5.83628 -2.04309 2.23279 -5.96765 -2.03443 3.74132 -6.01414 -1.99944 
5.29349 -6.04352 -1.98806 6.83061 -6.01553 -1.99139 8.38007 -5.5611 -1.8373 
10.088 -4.57168 -1.45393 11.9072 -3.52482 -0.986098 13.4979 -2.79205 -0.537664 
-1.82046 -5.75112 -1.92211 -3.22565 -5.84853 -1.82744 -4.68781 -5.92019 -1.73704 
-6.17727 -5.91383 -1.63147 -7.60835 -5.82461 -1.52253 -8.92997 -5.61483 -1.34618 
-10.152 -5.23689 -1.04178 -11.2221 -4.75429 -0.700789 -12.1266 -4.23077 -0.405079 
1.39325 -6.37438 2.03802 2.91901 -6.45585 1.77074 4.58958 -6.51171 1.49599 
6.22667 -6.46858 1.2669 7.74122 -6.27121 1.07232 9.22563 -5.77085 0.832424 
10.7234 -4.88214 0.576915 12.193 -3.85777 0.359158 13.5362 -2.98844 0.137019 
-1.43593 -6.42155 2.27608 -3.05816 -6.51593 2.21884 -4.81757 -6.56212 2.12266 
-6.60894 -6.55969 1.99161 -8.18595 -6.4391 1.7767 -9.42826 -6.05592 1.43506 
-10.4739 -5.45208 1.01356 -11.4192 -4.8235 0.602935 -12.2397 -4.23265 0.230875 
16.6498 7.75486 1.50687 17.2902 6.82862 1.54276 17.6018 5.64192 1.45219 
17.5299 4.45133 1.25953 17.3168 3.2258 1.02803 17.0175 1.94124 0.806621 
16.5773 0.692435 0.578993 16.0859 -0.477822 0.319975 15.4828 -1.49124 0.07397 
-14.4144 6.66926 0.956842 -15.1928 5.76196 0.783334 -15.7617 4.7705 0.559707 
-15.9847 3.70892 0.327174 -15.8558 2.41507 0.0864197 -15.5901 0.970382 -0.119699 
-15.2693 -0.419325 -0.221756 -14.6978 -1.68477 -0.222015 -13.8458 -2.77085 -0.177146 
-7.29438 -0.115445 -3.60046 -6.87782 0.321221 -3.75218 -5.8851 -0.438304 -3.65694 
-6.37041 0.805463 -3.76141 -5.36702 -0.0473616 -3.79983 -4.23367 -0.807989 -3.67562 
-5.63765 1.28341 -3.61357 -4.64393 0.341773 -3.77223 -3.50657 -0.474022 -3.72779 
-2.17612 -1.19238 -3.61885 -4.71169 1.6812 -3.49913 -3.63059 0.672644 -3.5887 
-2.43054 -0.173761 -3.58511 -1.06771 -0.867871 -3.51338 0.316657 -1.43738 -3.45722 
-3.76581 1.91619 -3.3873 -2.5046 0.911523 -3.38648 -1.09613 0.0844932 -3.33335 
0.358035 -0.509161 -3.26439 1.77046 -0.97865 -3.25582 2.9356 -1.36285 -3.27031 
-2.7512 1.93183 -3.11184 -1.35933 1.04441 -3.13549 0.231126 0.355165 -3.1155 
1.80452 -0.0918106 -3.06904 3.25709 -0.426158 -3.06964 4.44098 -0.734768 -3.13631 
5.28626 -1.0454 -3.19464 -1.56004 1.83824 -2.75268 -0.0943181 1.12913 -2.8151 
1.53877 0.678557 -2.89535 3.1071 0.44268 -2.96267 4.5346 0.226081 -2.99925 
5.73795 -0.0348308 -3.06014 6.61494 -0.333278 -3.15113 7.21591 -0.677714 -3.21271 
-9.52688 0.853591 -3.44961 -10.5986 1.74934 -3.22314 -9.2568 1.48303 -3.45614 
-11.6189 2.7696 -2.83578 -10.3071 2.48934 -3.11183 -8.86306 2.15175 -3.33211 
-12.4737 3.83527 -2.33194 -11.1932 3.55549 -2.65138 -9.76568 3.19673 -2.94502 
-8.18222 2.74489 -3.17368 -13.1011 4.95309 -1.81156 -11.8572 4.64573 -2.12976 
-10.4477 4.25534 -2.50998 -8.88574 3.72022 -2.85725 -7.21484 3.18285 -3.16999 
-13.4189 5.97897 -1.31039 -12.2644 5.68151 -1.60616 -10.9415 5.28535 -2.00081 
-9.45236 4.67732 -2.42877 -7.80124 4.0048 -2.85133 -6.20367 3.46526 -3.19897 
-13.4298 6.72432 -0.715027 -12.3871 6.47354 -1.04279 -11.1992 6.12257 -1.43058 
-9.868 5.57016 -1.86299 -8.32518 4.80549 -2.31416 -6.71468 4.15188 -2.76501 
-5.24985 3.57475 -3.03549 -13.2345 7.20727 -0.0178563 -12.3082 7.0048 -0.403236 
-11.2253 6.67467 -0.815024 -10.0196 6.23928 -1.2622 -8.66077 5.56754 -1.70838 
-7.14459 4.83836 -2.1747 -5.65602 4.21793 -2.57444 -4.23824 3.50103 -2.73396 
-11.9264 7.61224 0.872724 -10.7867 7.51494 1.02449 -11.0347 7.40438 0.385806 
-9.54545 7.18385 1.18071 -9.79011 7.24679 0.504787 -9.94254 6.9982 -0.11725 
-8.256 6.57526 1.28114 -8.45843 6.80296 0.65209 -8.62347 6.69004 -0.0444542 
-8.70876 6.4602 -0.646361 -6.9077 5.75493 1.21117 -7.10278 6.12739 0.742759 
-7.27413 6.14739 0.064486 -7.36916 6.04823 -0.609318 -7.4069 5.86895 -1.15876 
-5.51239 4.89653 1.10272 -5.68477 5.38833 0.710734 -5.84695 5.57204 0.146377 
-5.96585 5.56621 -0.512339 -6.00168 5.50745 -1.12165 -6.00234 5.27437 -1.62438 
-4.09078 4.06817 1.10192 -4.21488 4.55331 0.679879 -4.31637 4.89097 0.166059 
[...]
POINT_DATA 1002
FIELD FieldData 4
_paraPhi 1 1002 double
6.2831853072 3.1415926536 6.2831853072 3.1415926536 4.7123889804 4.7123889804 1.5707963268 1.5707963268 3.6951670125 
5.7296109483 2.5880182947 0.5535743589 6.2831853072 6.2831853072 6.2831853072 6.2831853072 3.1415926536 3.1415926536 
3.1415926536 3.1415926536 3.1415926536 6.1053039672 5.898798347 5.6768734901 5.4599499503 5.2659633393 5.1032165617 
4.9713148346 4.8656852733 4.7809517865 0.17788134 0.38438696014 0.60631181711 0.82323535693 1.0172219679 1.1799687454 
1.3118704726 1.4175000338 1.5022335207 6.1892828907 6.1070320098 6.035312792 5.9728339911 5.9183214791 5.8706119594 
5.8286879411 5.7916808611 5.7588591896 0.093902416448 0.17615329733 0.2478725152 0.31035131605 0.36486382811 0.41257334776 
0.45449736604 0.4915044461 0.52432611754 3.3194739936 3.5259796137 3.7479044707 3.9648280105 4.1588146215 4.321561399 
4.4534631262 4.5590926874 4.6438261743 2.9637113136 2.7572056934 2.5352808365 2.3183572967 2.1243706857 1.9616239082 
1.829722181 1.7240926197 1.6393591329 3.23549507 3.3177459509 3.3894651688 3.4519439696 3.5064564817 3.5541660013 
3.5960900196 3.6330970997 3.6659187711 3.0476902371 2.9654393563 2.8937201384 2.8312413375 2.7767288255 2.7290193058 
2.6870952876 2.6500882075 2.617266536 6.2831853072 6.2831853072 6.2831853072 6.2831853072 3.1415926536 3.1415926536 
3.1415926536 3.1415926536 3.1415926536 6.1053039672 5.898798347 5.6768734901 5.4599499503 5.2659633393 5.1032165617 
4.9713148346 4.8656852733 4.7809517865 0.17788134 0.38438696014 0.60631181711 0.82323535693 1.0172219679 1.1799687454 
1.3118704726 1.4175000338 1.5022335207 6.1892828907 6.1070320098 6.035312792 5.9728339911 5.9183214791 5.8706119594 
5.8286879411 5.7916808611 5.7588591896 0.093902416448 0.17615329733 0.2478725152 0.31035131605 0.36486382811 0.41257334776 
0.45449736604 0.4915044461 0.52432611754 3.3194739936 3.5259796137 3.7479044707 3.9648280105 4.1588146215 4.321561399 
4.4534631262 4.5590926874 4.6438261743 2.9637113136 2.7572056934 2.5352808365 2.3183572967 2.1243706857 1.9616239082 
1.829722181 1.7240926197 1.6393591329 3.23549507 3.3177459509 3.3894651688 3.4519439696 3.5064564817 3.5541660013 
3.5960900196 3.6330970997 3.6659187711 3.0476902371 2.9654393563 2.8937201384 2.8312413375 2.7767288255 2.7290193058 
2.6870952876 2.6500882075 2.617266536 4.7123889804 4.7123889804 4.7123889804 4.7123889804 4.7123889804 4.7123889804 
4.7123889804 4.7123889804 4.7123889804 4.6087898617 4.4991390697 4.3857031936 4.2712800401 4.1588146215 4.0509635631 
3.94975894 3.8564636551 3.7716124825 4.8159880991 4.9256388911 5.0390747672 5.1534979207 5.2659633393 5.3738143976 
5.4750190208 5.5683143056 5.6531654782 4.6087898617 4.4991390697 4.3857031936 4.2712800401 4.1588146215 4.0509635631 
3.94975894 3.8564636551 3.7716124825 4.8159880991 4.9256388911 5.0390747672 5.1534979207 5.2659633393 5.3738143976 
5.4750190208 5.5683143056 5.6531654782 1.5707963268 1.5707963268 1.5707963268 1.5707963268 1.5707963268 1.5707963268 
1.5707963268 1.5707963268 1.5707963268 1.6743954455 1.7840462375 1.8974821136 2.0119052671 2.1243706857 2.232221744 
2.3334263672 2.426721652 2.5115728246 1.4671972081 1.3575464161 1.24411054 1.1296873865 1.0172219679 0.90937090954 
0.80816628637 0.71487100155 0.63001982895 1.6743954455 1.7840462375 1.8974821136 2.0119052671 2.1243706857 2.232221744 
2.3334263672 2.426721652 2.5115728246 1.4671972081 1.3575464161 1.24411054 1.1296873865 1.0172219679 0.90937090954 
0.80816628637 0.71487100155 0.63001982895 3.6007720849 3.4966939854 3.3839471039 3.2645756454 3.1415926536 3.0186096618 
2.8992382033 2.7864913217 2.6824132222 5.8240058758 5.9280839753 6.0408308569 6.1602023154 6.2831853072 0.12298299178 
0.2423544503 0.35510133185 0.45917943135 6.0560271438 5.7885595667 5.9702140275 5.5125918794 5.6029703303 5.7885595667 
5.2659633393 5.2659633393 5.2659633393 5.2659633393 5.0674903122 5.0120975802 4.9155579264 4.7123889804 4.1588146215 
4.9155579264 4.8353719722 4.7123889804 4.5092200343 4.1588146215 3.6362183941 4.8004512023 4.7123889804 4.5894059886 
4.4126803806 4.1588146215 3.8218076305 3.4545639333 4.7123889804 4.6243267584 4.5092200343 4.3572876485 4.1588146215 
3.9121860814 3.6362183941 3.368750817 6.0174235957 5.9434319871 5.8263323547 5.8809213739 5.7674481418 5.6279784266 
5.8278025282 5.718968232 5.5891129425 5.4372443565 5.7823484065 5.678536687 5.5575666702 5.4192596322 5.2659633393 
5.743164462 5.6444075337 5.5314983644 5.4046708639 5.2659633393 5.1195510325 5.7091357773 5.6152775188 5.5096229709 
5.3926039573 5.2659633393 5.1329233157 4.9978930058 5.6793730533 5.5901633916 5.4910209005 5.3824597928 5.2659633393 
5.1440684722 5.0201624502 4.8979782167 5.5683143056 5.4750190208 5.4750190208 5.3738143976 5.3738143976 5.3738143976 
5.2659633393 5.2659633393 5.2659633393 5.2659633393 5.1534979207 5.1534979207 5.1534979207 5.1534979207 5.1534979207 
5.0390747672 5.0390747672 5.0390747672 5.0390747672 5.0390747672 5.0390747672 4.9256388911 4.9256388911 4.9256388911 
4.9256388911 4.9256388911 4.9256388911 4.9256388911 4.8159880991 4.8159880991 4.8159880991 4.8159880991 4.8159880991 
4.8159880991 4.8159880991 4.8159880991 4.6087898617 4.6087898617 4.4991390697 4.6087898617 4.4991390697 4.3857031936 
4.6087898617 4.4991390697 4.3857031936 4.2712800401 4.6087898617 4.4991390697 4.3857031936 4.2712800401 4.1588146215 
4.6087898617 4.4991390697 4.3857031936 4.2712800401 4.1588146215 4.0509635631 4.6087898617 4.4991390697 4.3857031936 
4.2712800401 4.1588146215 4.0509635631 3.94975894 4.6087898617 4.4991390697 4.3857031936 4.2712800401 4.1588146215 
4.0509635631 3.94975894 3.8564636551 4.526799744 4.4046155105 4.426884955 4.2807094886 4.2918546451 4.3052269283 
4.1588146215 4.1588146215 4.1588146215 4.1588146215 4.042318168 4.0321740035 4.0201070968 4.0055183285 3.9875336042 
3.9337570603 3.9151549899 3.8932795963 3.8672112905 3.8356650183 3.7967995342 3.8346145692 3.809500442 3.7803704271 
3.7462412737 3.7058097288 3.657329819 3.5984456061 3.7454049075 3.7156421835 3.6816134988 3.6424295543 3.5969754326 
3.5438565869 3.4813459737 3.4073543651 3.5642842451 3.4524645613 3.5233842518 3.3320300872 3.403123212 3.4773852225 
3.20576226 3.2746326772 3.348015857 3.4255060145 3.0774230472 3.1415926536 3.2112816139 3.2864685043 3.3668817272 
2.95115522 3.00855263 3.0719036933 3.1415926536 3.2178377658 3.3005964304 2.8307207459 2.8800620952 2.9351694502 
2.9967168029 3.0653475414 3.1415926536 3.225752376 2.718901062 2.7598010554 2.8058000847 2.8576792927 2.91630358 
2.9825888767 3.0574329311 3.1415926536 3.5642842451 3.5233842518 3.4524645613 3.4773852225 3.403123212 3.3320300872 
3.4255060145 3.348015857 3.2746326772 3.20576226 3.3668817272 3.2864685043 3.2112816139 3.1415926536 3.0774230472 
3.3005964304 3.2178377658 3.1415926536 3.0719036933 3.00855263 2.95115522 3.225752376 3.1415926536 3.0653475414 
2.9967168029 2.9351694502 2.8800620952 2.8307207459 3.1415926536 3.0574329311 2.9825888767 2.91630358 2.8576792927 
2.8058000847 2.7598010554 2.718901062 4.526799744 4.426884955 4.4046155105 4.3052269283 4.2918546451 4.2807094886 
4.1588146215 4.1588146215 4.1588146215 4.1588146215 3.9875336042 4.0055183285 4.0201070968 4.0321740035 4.042318168 
3.7967995342 3.8356650183 3.8672112905 3.8932795963 3.9151549899 3.9337570603 3.5984456061 3.657329819 3.7058097288 
3.7462412737 3.7803704271 3.809500442 3.8346145692 3.4073543651 3.4813459737 3.5438565869 3.5969754326 3.6424295543 
3.6816134988 3.7156421835 3.7454049075 4.7123889804 4.8004512023 4.6243267584 4.9155579264 4.7123889804 4.5092200343 
5.0674903122 4.8353719722 4.5894059886 4.3572876485 5.2659633393 5.0120975802 4.7123889804 4.4126803806 4.1588146215 
5.5125918794 5.2659633393 4.9155579264 4.5092200343 4.1588146215 3.9121860814 5.7885595667 5.6029703303 5.2659633393 
4.7123889804 4.1588146215 3.8218076305 3.6362183941 6.0560271438 5.9702140275 5.7885595667 5.2659633393 4.1588146215 
3.6362183941 3.4545639333 3.368750817 0.22715816343 0.49462574053 0.3129712797 0.77059342779 0.68021497688 0.49462574053 
1.0172219679 1.0172219679 1.0172219679 1.0172219679 1.2156949949 1.271087727 1.3676273807 1.5707963268 2.1243706857 
1.3676273807 1.447813335 1.5707963268 1.7739652728 2.1243706857 2.6469669131 1.4827341049 1.5707963268 1.6937793186 
1.8705049266 2.1243706857 2.4613776767 2.8286213739 1.5707963268 1.6588585487 1.7739652728 1.9258976586 2.1243706857 
2.3709992258 2.6469669131 2.9144344902 1.7563855631 1.8785697967 1.8563003522 2.0024758186 1.9913306621 1.9779583789 
2.1243706857 2.1243706857 2.1243706857 2.1243706857 2.2408671392 2.2510113037 2.2630782103 2.2776669786 2.295651703 
2.3494282469 2.3680303173 2.3899057108 2.4159740166 2.4475202889 2.486385773 2.448570738 2.4736848652 2.5028148801 
2.5369440334 2.5773755784 2.6258554882 2.6847397011 2.5377803997 2.5675431237 2.6015718084 2.6407557529 2.6862098746 
2.7393287203 2.8018393335 2.8758309421 1.6743954455 1.6743954455 1.7840462375 1.6743954455 1.7840462375 1.8974821136 
1.6743954455 1.7840462375 1.8974821136 2.0119052671 1.6743954455 1.7840462375 1.8974821136 2.0119052671 2.1243706857 
1.6743954455 1.7840462375 1.8974821136 2.0119052671 2.1243706857 2.232221744 1.6743954455 1.7840462375 1.8974821136 
2.0119052671 2.1243706857 2.232221744 2.3334263672 1.6743954455 1.7840462375 1.8974821136 2.0119052671 2.1243706857 
2.232221744 2.3334263672 2.426721652 1.4671972081 1.3575464161 1.4671972081 1.24411054 1.3575464161 1.4671972081 
1.1296873865 1.24411054 1.3575464161 1.4671972081 1.0172219679 1.1296873865 1.24411054 1.3575464161 1.4671972081 
0.90937090954 1.0172219679 1.1296873865 1.24411054 1.3575464161 1.4671972081 0.80816628637 0.90937090954 1.0172219679 
1.1296873865 1.24411054 1.3575464161 1.4671972081 0.71487100155 0.80816628637 0.90937090954 1.0172219679 1.1296873865 
1.24411054 1.3575464161 1.4671972081 0.60381225391 0.57404952988 0.69302191562 0.54002084522 0.66790778838 0.79216440667 
0.50083690068 0.63877777351 0.77356233629 0.90072551443 0.45538277901 0.60464862014 0.75168694275 0.89058134991 1.0172219679 
0.40226393329 0.56421707518 0.72561863695 0.87851444325 1.0172219679 1.139116835 0.33975332011 0.51573716537 0.69407236469 
0.86392567495 1.0172219679 1.1502619915 1.2630228569 0.26576171152 0.45685295248 0.6552068806 0.84594095064 1.0172219679 
1.1636342747 1.2852923014 1.3852070904 0.22715816343 0.3129712797 0.49462574053 0.49462574053 0.68021497688 0.77059342779 
1.0172219679 1.0172219679 1.0172219679 1.0172219679 2.1243706857 1.5707963268 1.3676273807 1.271087727 1.2156949949 
2.6469669131 2.1243706857 1.7739652728 1.5707963268 1.447813335 1.3676273807 2.8286213739 2.4613776767 2.1243706857 
1.8705049266 1.6937793186 1.5707963268 1.4827341049 2.9144344902 2.6469669131 2.3709992258 2.1243706857 1.9258976586 
1.7739652728 1.6588585487 1.5707963268 1.7563855631 1.8563003522 1.8785697967 1.9779583789 1.9913306621 2.0024758186 
2.1243706857 2.1243706857 2.1243706857 2.1243706857 2.295651703 2.2776669786 2.2630782103 2.2510113037 2.2408671392 
2.486385773 2.4475202889 2.4159740166 2.3899057108 2.3680303173 2.3494282469 2.6847397011 2.6258554882 2.5773755784 
2.5369440334 2.5028148801 2.4736848652 2.448570738 2.8758309421 2.8018393335 2.7393287203 2.6862098746 2.6407557529 
2.6015718084 2.5675431237 2.5377803997 5.8604937156 5.901393709 5.9723133995 5.9473927383 6.0216547488 6.0927478736 
5.9992719463 6.0767621038 6.1501452836 6.2190157008 6.0578962336 6.1383094565 6.2134963469 0 0.064169606361 
6.1241815303 6.206940195 6.2831853072 0.069688960264 0.13304002361 0.19043743361 6.1990255847 0 0.07624511221 
0.14487585072 0.20642320337 0.26153055843 0.3108719077 0 0.084159722458 0.15900377685 0.22528907359 0.28391336087 
0.3357925689 0.38179159818 0.42269159155 5.8604937156 5.9723133995 5.901393709 6.0927478736 6.0216547488 5.9473927383 
6.2190157008 6.1501452836 6.0767621038 5.9992719463 0.064169606361 0 6.2134963469 6.1383094565 6.0578962336 
0.19043743361 0.13304002361 0.069688960264 6.2831853072 6.206940195 6.1241815303 0.3108719077 0.26153055843 0.20642320337 
0.14487585072 0.07624511221 6.2831853072 6.1990255847 0.42269159155 0.38179159818 0.3357925689 0.28391336087 0.22528907359 
0.15900377685 0.084159722458 0 5.6793730533 5.7091357773 5.5901633916 5.743164462 5.6152775188 5.4910209005 
5.7823484065 5.6444075337 5.5096229709 5.3824597928 5.8278025282 5.678536687 5.5314983644 5.3926039573 5.2659633393 
5.8809213739 5.718968232 5.5575666702 5.4046708639 5.2659633393 5.1440684722 5.9434319871 5.7674481418 5.5891129425 
5.4192596322 5.2659633393 5.1329233157 5.0201624502 6.0174235957 5.8263323547 5.6279784266 5.4372443565 5.2659633393 
5.1195510325 4.9978930058 4.8979782167 1.3852070904 1.2852923014 1.2630228569 1.1636342747 1.1502619915 1.139116835 
1.0172219679 1.0172219679 1.0172219679 1.0172219679 0.84594095064 0.86392567495 0.87851444325 0.89058134991 0.90072551443 
0.6552068806 0.69407236469 0.72561863695 0.75168694275 0.77356233629 0.79216440667 0.45685295248 0.51573716537 0.56421707518 
0.60464862014 0.63877777351 0.66790778838 0.69302191562 0.26576171152 0.33975332011 0.40226393329 0.45538277901 0.50083690068 
0.54002084522 0.57404952988 0.60381225391 
_paraPhiHalf 1 1002 double
0 3.1415926536 0 3.1415926536 1.5707963268 1.5707963268 1.5707963268 1.5707963268 2.5880182947 
0.5535743589 2.5880182947 0.5535743589 0 0 0 0 3.1415926536 3.1415926536 
3.1415926536 3.1415926536 3.1415926536 0.17788134 0.38438696014 0.60631181711 0.82323535693 1.0172219679 1.1799687454 
1.3118704726 1.4175000338 1.5022335207 0.17788134 0.38438696014 0.60631181711 0.82323535693 1.0172219679 1.1799687454 
1.3118704726 1.4175000338 1.5022335207 0.093902416448 0.17615329733 0.2478725152 0.31035131605 0.36486382811 0.41257334776 
0.45449736604 0.4915044461 0.52432611754 0.093902416448 0.17615329733 0.2478725152 0.31035131605 0.36486382811 0.41257334776 
0.45449736604 0.4915044461 0.52432611754 2.9637113136 2.7572056934 2.5352808365 2.3183572967 2.1243706857 1.9616239082 
1.829722181 1.7240926197 1.6393591329 2.9637113136 2.7572056934 2.5352808365 2.3183572967 2.1243706857 1.9616239082 
1.829722181 1.7240926197 1.6393591329 3.0476902371 2.9654393563 2.8937201384 2.8312413375 2.7767288255 2.7290193058 
2.6870952876 2.6500882075 2.617266536 3.0476902371 2.9654393563 2.8937201384 2.8312413375 2.7767288255 2.7290193058 
2.6870952876 2.6500882075 2.617266536 0 0 0 0 3.1415926536 3.1415926536 
3.1415926536 3.1415926536 3.1415926536 0.17788134 0.38438696014 0.60631181711 0.82323535693 1.0172219679 1.1799687454 
1.3118704726 1.4175000338 1.5022335207 0.17788134 0.38438696014 0.60631181711 0.82323535693 1.0172219679 1.1799687454 
1.3118704726 1.4175000338 1.5022335207 0.093902416448 0.17615329733 0.2478725152 0.31035131605 0.36486382811 0.41257334776 
0.45449736604 0.4915044461 0.52432611754 0.093902416448 0.17615329733 0.2478725152 0.31035131605 0.36486382811 0.41257334776 
0.45449736604 0.4915044461 0.52432611754 2.9637113136 2.7572056934 2.5352808365 2.3183572967 2.1243706857 1.9616239082 
1.829722181 1.7240926197 1.6393591329 2.9637113136 2.7572056934 2.5352808365 2.3183572967 2.1243706857 1.9616239082 
1.829722181 1.7240926197 1.6393591329 3.0476902371 2.9654393563 2.8937201384 2.8312413375 2.7767288255 2.7290193058 
2.6870952876 2.6500882075 2.617266536 3.0476902371 2.9654393563 2.8937201384 2.8312413375 2.7767288255 2.7290193058 
2.6870952876 2.6500882075 2.617266536 1.5707963268 1.5707963268 1.5707963268 1.5707963268 1.5707963268 1.5707963268 
1.5707963268 1.5707963268 1.5707963268 1.6743954455 1.7840462375 1.8974821136 2.0119052671 2.1243706857 2.232221744 
2.3334263672 2.426721652 2.5115728246 1.4671972081 1.3575464161 1.24411054 1.1296873865 1.0172219679 0.90937090954 
0.80816628637 0.71487100155 0.63001982895 1.6743954455 1.7840462375 1.8974821136 2.0119052671 2.1243706857 2.232221744 
2.3334263672 2.426721652 2.5115728246 1.4671972081 1.3575464161 1.24411054 1.1296873865 1.0172219679 0.90937090954 
0.80816628637 0.71487100155 0.63001982895 1.5707963268 1.5707963268 1.5707963268 1.5707963268 1.5707963268 1.5707963268 
1.5707963268 1.5707963268 1.5707963268 1.6743954455 1.7840462375 1.8974821136 2.0119052671 2.1243706857 2.232221744 
2.3334263672 2.426721652 2.5115728246 1.4671972081 1.3575464161 1.24411054 1.1296873865 1.0172219679 0.90937090954 
0.80816628637 0.71487100155 0.63001982895 1.6743954455 1.7840462375 1.8974821136 2.0119052671 2.1243706857 2.232221744 
2.3334263672 2.426721652 2.5115728246 1.4671972081 1.3575464161 1.24411054 1.1296873865 1.0172219679 0.90937090954 
0.80816628637 0.71487100155 0.63001982895 2.6824132222 2.7864913217 2.8992382033 3.0186096618 3.1415926536 3.0186096618 
2.8992382033 2.7864913217 2.6824132222 0.45917943135 0.35510133185 0.2423544503 0.12298299178 0 0.12298299178 
0.2423544503 0.35510133185 0.45917943135 0.22715816343 0.49462574053 0.3129712797 0.77059342779 0.68021497688 0.49462574053 
1.0172219679 1.0172219679 1.0172219679 1.0172219679 1.2156949949 1.271087727 1.3676273807 1.5707963268 2.1243706857 
1.3676273807 1.447813335 1.5707963268 1.7739652728 2.1243706857 2.6469669131 1.4827341049 1.5707963268 1.6937793186 
1.8705049266 2.1243706857 2.4613776767 2.8286213739 1.5707963268 1.6588585487 1.7739652728 1.9258976586 2.1243706857 
2.3709992258 2.6469669131 2.9144344902 0.26576171152 0.33975332011 0.45685295248 0.40226393329 0.51573716537 0.6552068806 
0.45538277901 0.56421707518 0.69407236469 0.84594095064 0.50083690068 0.60464862014 0.72561863695 0.86392567495 1.0172219679 
0.54002084522 0.63877777351 0.75168694275 0.87851444325 1.0172219679 1.1636342747 0.57404952988 0.66790778838 0.77356233629 
0.89058134991 1.0172219679 1.1502619915 1.2852923014 0.60381225391 0.69302191562 0.79216440667 0.90072551443 1.0172219679 
1.139116835 1.2630228569 1.3852070904 0.71487100155 0.80816628637 0.80816628637 0.90937090954 0.90937090954 0.90937090954 
1.0172219679 1.0172219679 1.0172219679 1.0172219679 1.1296873865 1.1296873865 1.1296873865 1.1296873865 1.1296873865 
1.24411054 1.24411054 1.24411054 1.24411054 1.24411054 1.24411054 1.3575464161 1.3575464161 1.3575464161 
1.3575464161 1.3575464161 1.3575464161 1.3575464161 1.4671972081 1.4671972081 1.4671972081 1.4671972081 1.4671972081 
1.4671972081 1.4671972081 1.4671972081 1.6743954455 1.6743954455 1.7840462375 1.6743954455 1.7840462375 1.8974821136 
1.6743954455 1.7840462375 1.8974821136 2.0119052671 1.6743954455 1.7840462375 1.8974821136 2.0119052671 2.1243706857 
1.6743954455 1.7840462375 1.8974821136 2.0119052671 2.1243706857 2.232221744 1.6743954455 1.7840462375 1.8974821136 
2.0119052671 2.1243706857 2.232221744 2.3334263672 1.6743954455 1.7840462375 1.8974821136 2.0119052671 2.1243706857 
2.232221744 2.3334263672 2.426721652 1.7563855631 1.8785697967 1.8563003522 2.0024758186 1.9913306621 1.9779583789 
2.1243706857 2.1243706857 2.1243706857 2.1243706857 2.2408671392 2.2510113037 2.2630782103 2.2776669786 2.295651703 
2.3494282469 2.3680303173 2.3899057108 2.4159740166 2.4475202889 2.486385773 2.448570738 2.4736848652 2.5028148801 
2.5369440334 2.5773755784 2.6258554882 2.6847397011 2.5377803997 2.5675431237 2.6015718084 2.6407557529 2.6862098746 
2.7393287203 2.8018393335 2.8758309421 2.718901062 2.8307207459 2.7598010554 2.95115522 2.8800620952 2.8058000847 
3.0774230472 3.00855263 2.9351694502 2.8576792927 3.0774230472 3.1415926536 3.0719036933 2.9967168029 2.91630358 
2.95115522 3.00855263 3.0719036933 3.1415926536 3.0653475414 2.9825888767 2.8307207459 2.8800620952 2.9351694502 
2.9967168029 3.0653475414 3.1415926536 3.0574329311 2.718901062 2.7598010554 2.8058000847 2.8576792927 2.91630358 
2.9825888767 3.0574329311 3.1415926536 2.718901062 2.7598010554 2.8307207459 2.8058000847 2.8800620952 2.95115522 
2.8576792927 2.9351694502 3.00855263 3.0774230472 2.91630358 2.9967168029 3.0719036933 3.1415926536 3.0774230472 
2.9825888767 3.0653475414 3.1415926536 3.0719036933 3.00855263 2.95115522 3.0574329311 3.1415926536 3.0653475414 