# vtk DataFile Version 5.1
vtk output
ASCII
DATASET POLYDATA
POINTS 1002 float
-8.45865 -0.191228 -3.41364 8.5592 -0.666394 -3.32856 -7.62886 0.231865 3.56988 
7.50694 -0.431365 2.40652 -1.0194 1.6818 -2.02729 -1.49737 2.2093 1.55684 
-0.42088 -6.11914 -1.90281 0.183303 -6.748 2.43856 13.7946 9.27269 1.21851 
-12.8468 7.6899 0.48528 13.2586 -2.54725 -0.322623 -12.399 -3.55044 -0.0162871 
-7.38873 -0.548535 -3.44119 -6.1006 -0.948272 -3.40661 -4.56126 -1.35714 -3.34907 
-2.68856 -1.70379 -3.2378 -0.438704 -1.93881 -3.04528 1.94128 -2.04143 -2.96877 
4.07596 -1.94316 -3.11334 5.8464 -1.60602 -3.27319 7.32178 -1.13475 -3.32433 
-8.26125 0.303133 -3.43784 -7.89347 0.821718 -3.3916 -7.42114 1.31989 -3.36506 
-7.00217 1.78492 -3.40012 -6.47356 2.22703 -3.3697 -5.49686 2.52875 -3.18672 
-4.21446 2.51169 -2.93278 -3.02529 2.2261 -2.65836 -2.00503 1.90217 -2.34832 
-7.9526 -0.882244 -3.33278 -7.36177 -1.60746 -3.18348 -6.65976 -2.37798 -3.06221 
-5.83536 -3.15532 -2.98818 -4.93484 -3.87265 -2.85549 -3.98302 -4.47689 -2.64176 
-2.98792 -4.9566 -2.43225 -2.03049 -5.37153 -2.24719 -1.18084 -5.76867 -2.06707 
-9.37667 0.500323 -3.35821 -10.3317 1.32493 -3.25874 -11.2688 2.27789 -3.13926 
-12.1371 3.37047 -2.92629 -12.8656 4.57811 -2.56129 -13.3288 5.73515 -2.093 
-13.489 6.64278 -1.53444 -13.4365 7.24414 -0.868231 -13.2218 7.57901 -0.160871 
-9.14987 -0.302577 -3.3032 -9.87218 -0.465282 -3.15385 -10.5762 -0.690186 -2.99205 
-11.178 -1.01209 -2.78403 -11.702 -1.42307 -2.49487 -12.1311 -1.87428 -2.13693 
-12.3737 -2.36869 -1.68678 -12.4747 -2.8782 -1.13007 -12.4949 -3.29027 -0.546621 
8.22628 -0.236052 -3.29906 7.77809 0.236464 -3.2461 7.2559 0.661095 -3.09503 
6.66643 0.944221 -2.84251 5.8912 1.13136 -2.59625 4.8312 1.1978 -2.36806 
3.5295 1.027 -2.11033 2.03059 0.846853 -1.93414 0.430256 1.05506 -1.93783 
8.04444 -1.38424 -3.36132 7.36545 -2.17581 -3.37481 6.55406 -2.98396 -3.33002 
5.61016 -3.71281 -3.22957 4.53242 -4.32819 -3.09047 3.41619 -4.83287 -2.87542 
2.3653 -5.22022 -2.58389 1.37602 -5.53659 -2.30369 0.434544 -5.83931 -2.08506 
9.51095 0.0780781 -3.29316 10.4383 0.965648 -3.15485 11.3857 2.07097 -2.78224 
12.361 3.36756 -2.16498 13.2533 4.74871 -1.48228 13.9398 6.15533 -0.921639 
14.3332 7.47964 -0.487907 14.3749 8.50788 -0.0294139 14.1381 9.1006 0.559857 
9.44376 -0.651326 -3.34268 10.3496 -0.65589 -3.29986 11.2412 -0.668594 -3.10313 
12.0681 -0.703172 -2.756 12.7786 -0.84099 -2.40067 13.3089 -1.106 -2.07372 
13.6116 -1.42682 -1.65638 13.6923 -1.78604 -1.15092 13.5672 -2.182 -0.687871 
-6.55187 -0.204369 3.6783 -5.28469 -0.626105 3.82938 -3.86019 -1.00782 3.93306 
-2.28457 -1.36713 3.83709 -0.537751 -1.66839 3.56131 1.29997 -1.77753 3.22867 
3.08866 -1.61421 2.9259 4.74399 -1.2622 2.70891 6.22243 -0.849475 2.55361 
-7.27058 0.602493 3.48003 -6.83547 1.03991 3.43396 -6.30909 1.44777 3.35274 
-5.74976 1.76936 3.15233 -5.14054 2.05857 2.92351 -4.41079 2.30832 2.75207 
-3.62325 2.44064 2.54012 -2.88022 2.45525 2.23292 -2.18512 2.37684 1.89399 
-7.3397 -0.357117 3.76716 -6.9351 -1.03231 3.93007 -6.27026 -1.91347 3.90214 
-5.31647 -2.92109 3.73237 -4.2148 -3.88638 3.64402 -3.10634 -4.78436 3.61078 
-2.09992 -5.56181 3.42209 -1.25703 -6.107 3.08953 -0.520578 -6.46252 2.74856 
-8.42095 0.92945 3.40373 -9.25248 1.74429 3.18962 -10.0573 2.56482 2.87178 
-10.7721 3.34848 2.49288 -11.4444 4.23335 2.177 -12.0702 5.2083 1.9722 
-12.5193 6.04758 1.77845 -12.7567 6.71523 1.47177 -12.8539 7.28643 1.02238 
-8.49289 0.2735 3.54502 -9.47423 0.218582 3.40356 -10.5514 -0.0043657 3.12517 
-11.542 -0.384561 2.77509 -12.2292 -0.874005 2.3734 -12.5984 -1.45699 1.90759 
-12.7613 -2.09918 1.42588 -12.7708 -2.71605 0.948506 -12.6412 -3.21719 0.458796 
7.12255 -0.142628 2.36818 6.61799 0.0797484 2.23602 5.94443 0.282665 2.09672 
5.10607 0.458792 2.00489 4.12288 0.566718 1.90491 2.96072 0.646481 1.78639 
1.67023 0.798542 1.71602 0.432001 1.10861 1.68735 -0.629281 1.60051 1.64236 
7.08335 -1.07789 2.43942 6.57178 -1.82654 2.40987 5.9503 -2.61239 2.40832 
5.27804 -3.38247 2.49651 4.57821 -4.14114 2.60668 3.7806 -4.86835 2.65685 
2.89722 -5.50151 2.65279 2.00401 -6.01641 2.61284 1.10375 -6.42671 2.53817 
8.54486 0.256423 2.25764 9.6938 1.10584 2.14868 10.8848 2.16755 2.21458 
11.9841 3.45975 2.45478 12.8988 4.87313 2.70488 13.5692 6.22168 2.88101 
13.9287 7.41793 2.90219 14.0116 8.40749 2.58348 13.9403 9.05453 1.93812 
8.46509 -0.406994 2.28735 9.42811 -0.43849 2.17014 10.3453 -0.524368 2.05638 
11.1712 -0.709522 1.85466 11.8885 -1.01717 1.5701 12.4745 -1.35912 1.29378 
12.912 -1.67266 0.973372 13.2006 -1.98956 0.550881 13.3196 -2.29947 0.101517 
-1.18459 2.02004 -1.86064 -1.30023 2.22675 -1.61515 -1.37032 2.31254 -1.27601 
-1.4256 2.46649 -0.907891 -1.47145 2.75835 -0.547787 -1.51395 2.97309 -0.124375 
-1.5603 2.94059 0.37839 -1.57723 2.73337 0.86026 -1.54715 2.47448 1.25073 
1.08572 1.32456 -1.66217 3.60275 1.72307 -1.41358 5.8233 2.83188 -1.35642 
7.3405 4.15207 -1.29524 8.6808 5.30389 -1.01869 10.2003 6.33083 -0.577938 
11.4832 7.36173 -0.11395 12.3657 8.33564 0.328572 13.1068 9.03622 0.768374 
-2.74447 2.7682 -2.23436 -4.1342 3.93876 -2.19103 -5.51772 4.78345 -1.91936 
-7.02089 5.55485 -1.61974 -8.32991 6.50873 -1.34046 -9.43791 7.28892 -1.02203 
-10.5572 7.72718 -0.672941 -11.5449 7.99105 -0.2856 -12.2715 8.01279 0.127468 
-0.0782859 1.64734 1.24357 1.98092 1.4673 0.945181 4.55313 2.10127 0.854012 
6.97334 3.4189 1.03004 8.77367 4.83605 1.32268 10.1538 6.11518 1.58075 
11.3201 7.33412 1.73897 12.2497 8.37924 1.73694 13.0373 9.05149 1.54676 
-2.66324 3.02141 1.61611 -3.82841 3.82177 1.58715 -5.05472 4.61292 1.55156 
-6.27167 5.50504 1.5727 -7.43408 6.36318 1.57771 -8.58873 7.00315 1.49533 
-9.76394 7.48554 1.34982 -10.9247 7.82211 1.14832 -11.9772 7.89223 0.858878 
-0.461465 -6.46797 -1.67663 -0.501917 -6.78406 -1.37689 -0.56029 -7.07289 -0.954817 
-0.632909 -7.37799 -0.398257 -0.67304 -7.6396 0.213738 -0.621527 -7.71669 0.788688 
-0.453664 -7.59647 1.30995 -0.21506 -7.36875 1.77313 0.0120583 -7.07963 2.15026 
0.900829 -6.25061 -1.88433 2.36387 -6.37977 -1.94939 3.81005 -6.55701 -2.09851 
5.32808 -6.57234 -2.22832 7.28535 -6.11634 -2.22581 9.44791 -5.35304 -2.03794 
11.038 -4.64398 -1.6535 11.9381 -3.97731 -1.16123 12.6104 -3.25348 -0.70185 
-1.7125 -6.15176 -1.81543 -3.10353 -6.13406 -1.68999 -4.60474 -6.10847 -1.51698 
-6.10589 -6.05876 -1.35168 -7.47421 -5.90478 -1.22367 -8.72671 -5.62568 -1.05665 
-9.88195 -5.22403 -0.799267 -10.8791 -4.70647 -0.514363 -11.7082 -4.13559 -0.255979 
1.53205 -6.87037 2.19178 3.01912 -6.97122 1.91279 4.54707 -6.91418 1.59595 
6.05167 -6.66138 1.23581 7.58488 -6.21637 0.862367 9.12994 -5.57001 0.550578 
10.4748 -4.83384 0.292447 11.5322 -4.09254 0.0335217 12.4378 -3.31824 -0.18473 
-1.25438 -6.87808 2.51324 -2.83085 -7.01204 2.55498 -4.47989 -7.03296 2.48096 
-6.1956 -6.86239 2.24818 -7.88675 -6.56881 1.95238 -9.25029 -6.16984 1.65375 
-10.2022 -5.57608 1.26683 -11.0018 -4.84582 0.795347 -11.7645 -4.1504 0.355685 
14.628 8.95341 1.23369 15.2528 7.9073 1.16365 15.5976 6.28808 1.01553 
15.857 4.65359 0.825911 15.9381 3.27946 0.609424 15.6396 1.87478 0.386383 
15.2143 0.423435 0.196658 14.7741 -0.754132 0.0264045 14.1063 -1.67658 -0.154164 
-13.6918 7.08013 0.371417 -14.473 6.27705 0.167027 -14.9071 5.34838 -0.0297462 
-14.997 4.18345 -0.144826 -15.015 2.71661 -0.225681 -14.9092 1.11259 -0.29227 
-14.4833 -0.42644 -0.280374 -13.8358 -1.74299 -0.193294 -13.125 -2.76061 -0.0959179 
-7.02462 -0.104721 -3.45311 -6.49159 0.352783 -3.42579 -5.55989 -0.548146 -3.40556 
-5.96957 0.766705 -3.47603 -4.91486 -0.168411 -3.42003 -3.85149 -0.988226 -3.30238 
-5.4646 1.11868 -3.53098 -4.27173 0.110168 -3.51176 -3.03802 -0.704233 -3.30512 
-1.74403 -1.36978 -3.11396 -4.57109 1.38848 -3.36544 -3.34793 0.3162 -3.43996 
-1.98254 -0.515084 -3.30478 -0.598987 -1.11871 -3.07598 0.758571 -1.60224 -2.95486 
-3.22005 1.43954 -3.01081 -1.93301 0.475916 -3.05501 -0.469623 -0.25987 -3.03508 
0.919138 -0.790208 -2.96724 2.14541 -1.19125 -2.95389 3.22031 -1.56451 -3.01579 
-1.86333 1.24877 -2.63931 -0.435446 0.537662 -2.60308 1.14306 0.105012 -2.60766 
2.58919 -0.232926 -2.67144 3.68779 -0.539404 -2.83645 4.54058 -0.854974 -3.04415 
5.26651 -1.22618 -3.18855 -0.689367 1.05466 -2.27921 0.847289 0.603466 -2.24129 
2.43666 0.523608 -2.31099 3.89256 0.463245 -2.44828 4.99749 0.284822 -2.65908 
5.75425 0.0425538 -2.94737 6.36303 -0.303061 -3.17758 6.89845 -0.727315 -3.28048 
-9.21002 1.11094 -3.3411 -10.1723 2.04511 -3.22416 -8.8621 1.71877 -3.28397 
-11.1034 3.10353 -3.09241 -9.82355 2.72881 -3.1744 -8.41094 2.28093 -3.25859 
-11.9339 4.31213 -2.8304 -10.7102 3.8905 -3.00461 -9.31934 3.35535 -3.12027 
-7.93924 2.82226 -3.2428 -12.4942 5.5578 -2.39922 -11.4013 5.18942 -2.65258 
-10.0407 4.57851 -2.85179 -8.66385 3.90956 -3.01068 -7.21929 3.31315 -3.13522 
-12.6991 6.58436 -1.8678 -11.7547 6.34669 -2.14936 -10.5006 5.82036 -2.3902 
-9.13816 5.01106 -2.61935 -7.72822 4.28249 -2.80671 -6.0836 3.57057 -2.9407 
-12.6918 7.29974 -1.24694 -11.8338 7.13046 -1.5774 -10.6997 6.76333 -1.8347 
-9.40595 6.01706 -2.08503 -8.05839 5.10719 -2.3316 -6.51611 4.3833 -2.56812 
-4.8147 3.486 -2.72926 -12.5642 7.77199 -0.552814 -11.7694 7.64359 -0.945033 
-10.7138 7.34171 -1.26259 -9.50772 6.77799 -1.53943 -8.2597 5.85439 -1.80704 
-6.81667 4.99135 -2.08074 -5.2511 4.24886 -2.36799 -3.70428 3.16858 -2.50071 
-11.311 8.11624 0.469983 -10.0755 7.95708 0.751795 -10.3822 8.01089 0.0282989 
-8.77243 7.57172 0.956633 -8.99412 7.81047 0.274344 -9.26897 7.66847 -0.422588 
-7.60492 6.96941 1.07601 -7.73553 7.32509 0.433121 -7.97461 7.33216 -0.255973 
-8.23116 7.02588 -0.859207 -6.46739 6.11294 1.1161 -6.59764 6.54073 0.536124 
-6.77377 6.67218 -0.113501 -6.96726 6.48836 -0.725247 -7.04748 6.0632 -1.21325 
-5.20007 5.16778 1.14174 -5.29068 5.63652 0.631287 -5.41232 5.88167 0.0553531 
-5.53208 5.8251 -0.532134 -5.54185 5.52668 -1.06612 -5.51209 5.14755 -1.51388 
-3.91661 4.30448 1.21575 -3.93503 4.76052 0.74517 -3.97159 5.07306 0.205611 
[...]
POINT_DATA 1002
FIELD FieldData 4
_paraPhi 1 1002 double
6.2831853072 3.1415926536 6.2831853072 3.1415926536 4.7123889804 4.7123889804 1.5707963268 1.5707963268 3.6951670125 
5.7296109483 2.5880182947 0.5535743589 6.2831853072 6.2831853072 6.2831853072 6.2831853072 3.1415926536 3.1415926536 
3.1415926536 3.1415926536 3.1415926536 6.1053039672 5.898798347 5.6768734901 5.4599499503 5.2659633393 5.1032165617 
4.9713148346 4.8656852733 4.7809517865 0.17788134 0.38438696014 0.60631181711 0.82323535693 1.0172219679 1.1799687454 
1.3118704726 1.4175000338 1.5022335207 6.1892828907 6.1070320098 6.035312792 5.9728339911 5.9183214791 5.8706119594 
5.8286879411 5.7916808611 5.7588591896 0.093902416448 0.17615329733 0.2478725152 0.31035131605 0.36486382811 0.41257334776 
0.45449736604 0.4915044461 0.52432611754 3.3194739936 3.5259796137 3.7479044707 3.9648280105 4.1588146215 4.321561399 
4.4534631262 4.5590926874 4.6438261743 2.9637113136 2.7572056934 2.5352808365 2.3183572967 2.1243706857 1.9616239082 
1.829722181 1.7240926197 1.6393591329 3.23549507 3.3177459509 3.3894651688 3.4519439696 3.5064564817 3.5541660013 
3.5960900196 3.6330970997 3.6659187711 3.0476902371 2.9654393563 2.8937201384 2.8312413375 2.7767288255 2.7290193058 
2.6870952876 2.6500882075 2.617266536 6.2831853072 6.2831853072 6.2831853072 6.2831853072 3.1415926536 3.1415926536 
3.1415926536 3.1415926536 3.1415926536 6.1053039672 5.898798347 5.6768734901 5.4599499503 5.2659633393 5.1032165617 
4.9713148346 4.8656852733 4.7809517865 0.17788134 0.38438696014 0.60631181711 0.82323535693 1.0172219679 1.1799687454 
1.3118704726 1.4175000338 1.5022335207 6.1892828907 6.1070320098 6.035312792 5.9728339911 5.9183214791 5.8706119594 
5.8286879411 5.7916808611 5.7588591896 0.093902416448 0.17615329733 0.2478725152 0.31035131605 0.36486382811 0.41257334776 
0.45449736604 0.4915044461 0.52432611754 3.3194739936 3.5259796137 3.7479044707 3.9648280105 4.1588146215 4.321561399 
4.4534631262 4.5590926874 4.6438261743 2.9637113136 2.7572056934 2.5352808365 2.3183572967 2.1243706857 1.9616239082 
1.829722181 1.7240926197 1.6393591329 3.23549507 3.3177459509 3.3894651688 3.4519439696 3.5064564817 3.5541660013 
3.5960900196 3.6330970997 3.6659187711 3.0476902371 2.9654393563 2.8937201384 2.8312413375 2.7767288255 2.7290193058 
2.6870952876 2.6500882075 2.617266536 4.7123889804 4.7123889804 4.7123889804 4.7123889804 4.7123889804 4.7123889804 
4.7123889804 4.7123889804 4.7123889804 4.6087898617 4.4991390697 4.3857031936 4.2712800401 4.1588146215 4.0509635631 
3.94975894 3.8564636551 3.7716124825 4.8159880991 4.9256388911 5.0390747672 5.1534979207 5.2659633393 5.3738143976 
5.4750190208 5.5683143056 5.6531654782 4.6087898617 4.4991390697 4.3857031936 4.2712800401 4.1588146215 4.0509635631 
3.94975894 3.8564636551 3.7716124825 4.8159880991 4.9256388911 5.0390747672 5.1534979207 5.2659633393 5.3738143976 
5.4750190208 5.5683143056 5.6531654782 1.5707963268 1.5707963268 1.5707963268 1.5707963268 1.5707963268 1.5707963268 
1.5707963268 1.5707963268 1.5707963268 1.6743954455 1.7840462375 1.8974821136 2.0119052671 2.1243706857 2.232221744 
2.3334263672 2.426721652 2.5115728246 1.4671972081 1.3575464161 1.24411054 1.1296873865 1.0172219679 0.90937090954 
0.80816628637 0.71487100155 0.63001982895 1.6743954455 1.7840462375 1.8974821136 2.0119052671 2.1243706857 2.232221744 
2.3334263672 2.426721652 2.5115728246 1.4671972081 1.3575464161 1.24411054 1.1296873865 1.0172219679 0.90937090954 
0.80816628637 0.71487100155 0.63001982895 3.6007720849 3.4966939854 3.3839471039 3.2645756454 3.1415926536 3.0186096618 
2.8992382033 2.7864913217 2.6824132222 5.8240058758 5.9280839753 6.0408308569 6.1602023154 6.2831853072 0.12298299178 
0.2423544503 0.35510133185 0.45917943135 6.0560271438 5.7885595667 5.9702140275 5.5125918794 5.6029703303 5.7885595667 
5.2659633393 5.2659633393 5.2659633393 5.2659633393 5.0674903122 5.0120975802 4.9155579264 4.7123889804 4.1588146215 
4.9155579264 4.8353719722 4.7123889804 4.5092200343 4.1588146215 3.6362183941 4.8004512023 4.7123889804 4.5894059886 
4.4126803806 4.1588146215 3.8218076305 3.4545639333 4.7123889804 4.6243267584 4.5092200343 4.3572876485 4.1588146215 
3.9121860814 3.6362183941 3.368750817 6.0174235957 5.9434319871 5.8263323547 5.8809213739 5.7674481418 5.6279784266 
5.8278025282 5.718968232 5.5891129425 5.4372443565 5.7823484065 5.678536687 5.5575666702 5.4192596322 5.2659633393 
5.743164462 5.6444075337 5.5314983644 5.4046708639 5.2659633393 5.1195510325 5.7091357773 5.6152775188 5.5096229709 
5.3926039573 5.2659633393 5.1329233157 4.9978930058 5.6793730533 5.5901633916 5.4910209005 5.3824597928 5.2659633393 
5.1440684722 5.0201624502 4.8979782167 5.5683143056 5.4750190208 5.4750190208 5.3738143976 5.3738143976 5.3738143976 
5.2659633393 5.2659633393 5.2659633393 5.2659633393 5.1534979207 5.1534979207 5.1534979207 5.1534979207 5.1534979207 
5.0390747672 5.0390747672 5.0390747672 5.0390747672 5.0390747672 5.0390747672 4.9256388911 4.9256388911 4.9256388911 
4.9256388911 4.9256388911 4.9256388911 4.9256388911 4.8159880991 4.8159880991 4.8159880991 4.8159880991 4.8159880991 
4.8159880991 4.8159880991 4.8159880991 4.6087898617 4.6087898617 4.4991390697 4.6087898617 4.4991390697 4.3857031936 
4.6087898617 4.4991390697 4.3857031936 4.2712800401 4.6087898617 4.4991390697 4.3857031936 4.2712800401 4.1588146215 
4.6087898617 4.4991390697 4.3857031936 4.2712800401 4.1588146215 4.0509635631 4.6087898617 4.4991390697 4.3857031936 
4.2712800401 4.1588146215 4.0509635631 3.94975894 4.6087898617 4.4991390697 4.3857031936 4.2712800401 4.1588146215 
4.0509635631 3.94975894 3.8564636551 4.526799744 4.4046155105 4.426884955 4.2807094886 4.2918546451 4.3052269283 
4.1588146215 4.1588146215 4.1588146215 4.1588146215 4.042318168 4.0321740035 4.0201070968 4.0055183285 3.9875336042 
3.9337570603 3.9151549899 3.8932795963 3.8672112905 3.8356650183 3.7967995342 3.8346145692 3.809500442 3.7803704271 
3.7462412737 3.7058097288 3.657329819 3.5984456061 3.7454049075 3.7156421835 3.6816134988 3.6424295543 3.5969754326 
3.5438565869 3.4813459737 3.4073543651 3.5642842451 3.4524645613 3.5233842518 3.3320300872 3.403123212 3.4773852225 
3.20576226 3.2746326772 3.348015857 3.4255060145 3.0774230472 3.1415926536 3.2112816139 3.2864685043 3.3668817272 
2.95115522 3.00855263 3.0719036933 3.1415926536 3.2178377658 3.3005964304 2.8307207459 2.8800620952 2.9351694502 
2.9967168029 3.0653475414 3.1415926536 3.225752376 2.718901062 2.7598010554 2.8058000847 2.8576792927 2.91630358 
2.9825888767 3.0574329311 3.1415926536 3.5642842451 3.5233842518 3.4524645613 3.4773852225 3.403123212 3.3320300872 
3.4255060145 3.348015857 3.2746326772 3.20576226 3.3668817272 3.2864685043 3.2112816139 3.1415926536 3.0774230472 
3.3005964304 3.2178377658 3.1415926536 3.0719036933 3.00855263 2.95115522 3.225752376 3.1415926536 3.0653475414 
2.9967168029 2.9351694502 2.8800620952 2.8307207459 3.1415926536 3.0574329311 2.9825888767 2.91630358 2.8576792927 
2.8058000847 2.7598010554 2.718901062 4.526799744 4.426884955 4.4046155105 4.3052269283 4.2918546451 4.2807094886 
4.1588146215 4.1588146215 4.1588146215 4.1588146215 3.9875336042 4.0055183285 4.0201070968 4.0321740035 4.042318168 
3.7967995342 3.8356650183 3.8672112905 3.8932795963 3.9151549899 3.9337570603 3.5984456061 3.657329819 3.7058097288 
3.7462412737 3.7803704271 3.809500442 3.8346145692 3.4073543651 3.4813459737 3.5438565869 3.5969754326 3.6424295543 
3.6816134988 3.7156421835 3.7454049075 4.7123889804 4.8004512023 4.6243267584 4.9155579264 4.7123889804 4.5092200343 
5.0674903122 4.8353719722 4.5894059886 4.3572876485 5.2659633393 5.0120975802 4.7123889804 4.4126803806 4.1588146215 
5.5125918794 5.2659633393 4.9155579264 4.5092200343 4.1588146215 3.9121860814 5.7885595667 5.6029703303 5.2659633393 
4.7123889804 4.1588146215 3.8218076305 3.6362183941 6.0560271438 5.9702140275 5.7885595667 5.2659633393 4.1588146215 
3.6362183941 3.4545639333 3.368750817 0.22715816343 0.49462574053 0.3129712797 0.77059342779 0.68021497688 0.49462574053 
1.0172219679 1.0172219679 1.0172219679 1.0172219679 1.2156949949 1.271087727 1.3676273807 1.5707963268 2.1243706857 
1.3676273807 1.447813335 1.5707963268 1.7739652728 2.1243706857 2.6469669131 1.4827341049 1.5707963268 1.6937793186 
1.8705049266 2.1243706857 2.4613776767 2.8286213739 1.5707963268 1.6588585487 1.7739652728 1.9258976586 2.1243706857 
2.3709992258 2.6469669131 2.9144344902 1.7563855631 1.8785697967 1.8563003522 2.0024758186 1.9913306621 1.9779583789 
2.1243706857 2.1243706857 2.1243706857 2.1243706857 2.2408671392 2.2510113037 2.2630782103 2.2776669786 2.295651703 
2.3494282469 2.3680303173 2.3899057108 2.4159740166 2.4475202889 2.486385773 2.448570738 2.4736848652 2.5028148801 
2.5369440334 2.5773755784 2.6258554882 2.6847397011 2.5377803997 2.5675431237 2.6015718084 2.6407557529 2.6862098746 
2.7393287203 2.8018393335 2.8758309421 1.6743954455 1.6743954455 1.7840462375 1.6743954455 1.7840462375 1.8974821136 
1.6743954455 1.7840462375 1.8974821136 2.0119052671 1.6743954455 1.7840462375 1.8974821136 2.0119052671 2.1243706857 
1.6743954455 1.7840462375 1.8974821136 2.0119052671 2.1243706857 2.232221744 1.6743954455 1.7840462375 1.8974821136 
2.0119052671 2.1243706857 2.232221744 2.3334263672 1.6743954455 1.7840462375 1.8974821136 2.0119052671 2.1243706857 
2.232221744 2.3334263672 2.426721652 1.4671972081 1.3575464161 1.4671972081 1.24411054 1.3575464161 1.4671972081 
1.1296873865 1.24411054 1.3575464161 1.4671972081 1.0172219679 1.1296873865 1.24411054 1.3575464161 1.4671972081 
0.90937090954 1.0172219679 1.1296873865 1.24411054 1.3575464161 1.4671972081 0.80816628637 0.90937090954 1.0172219679 
1.1296873865 1.24411054 1.3575464161 1.4671972081 0.71487100155 0.80816628637 0.90937090954 1.0172219679 1.1296873865 
1.24411054 1.3575464161 1.4671972081 0.60381225391 0.57404952988 0.69302191562 0.54002084522 0.66790778838 0.79216440667 
0.50083690068 0.63877777351 0.77356233629 0.90072551443 0.45538277901 0.60464862014 0.75168694275 0.89058134991 1.0172219679 
0.40226393329 0.56421707518 0.72561863695 0.87851444325 1.0172219679 1.139116835 0.33975332011 0.51573716537 0.69407236469 
0.86392567495 1.0172219679 1.1502619915 1.2630228569 0.26576171152 0.45685295248 0.6552068806 0.84594095064 1.0172219679 
1.1636342747 1.2852923014 1.3852070904 0.22715816343 0.3129712797 0.49462574053 0.49462574053 0.68021497688 0.77059342779 
1.0172219679 1.0172219679 1.0172219679 1.0172219679 2.1243706857 1.5707963268 1.3676273807 1.271087727 1.2156949949 
2.6469669131 2.1243706857 1.7739652728 1.5707963268 1.447813335 1.3676273807 2.8286213739 2.4613776767 2.1243706857 
1.8705049266 1.6937793186 1.5707963268 1.4827341049 2.9144344902 2.6469669131 2.3709992258 2.1243706857 1.9258976586 
1.7739652728 1.6588585487 1.5707963268 1.7563855631 1.8563003522 1.8785697967 1.9779583789 1.9913306621 2.0024758186 
2.1243706857 2.1243706857 2.1243706857 2.1243706857 2.295651703 2.2776669786 2.2630782103 2.2510113037 2.2408671392 
2.486385773 2.4475202889 2.4159740166 2.3899057108 2.3680303173 2.3494282469 2.6847397011 2.6258554882 2.5773755784 
2.5369440334 2.5028148801 2.4736848652 2.448570738 2.8758309421 2.8018393335 2.7393287203 2.6862098746 2.6407557529 
2.6015718084 2.5675431237 2.5377803997 5.8604937156 5.901393709 5.9723133995 5.9473927383 6.0216547488 6.0927478736 
5.9992719463 6.0767621038 6.1501452836 6.2190157008 6.0578962336 6.1383094565 6.2134963469 0 0.064169606361 
6.1241815303 6.206940195 6.2831853072 0.069688960264 0.13304002361 0.19043743361 6.1990255847 0 0.07624511221 
0.14487585072 0.20642320337 0.26153055843 0.3108719077 0 0.084159722458 0.15900377685 0.22528907359 0.28391336087 
0.3357925689 0.38179159818 0.42269159155 5.8604937156 5.9723133995 5.901393709 6.0927478736 6.0216547488 5.9473927383 
6.2190157008 6.1501452836 6.0767621038 5.9992719463 0.064169606361 0 6.2134963469 6.1383094565 6.0578962336 
0.19043743361 0.13304002361 0.069688960264 6.2831853072 6.206940195 6.1241815303 0.3108719077 0.26153055843 0.20642320337 
0.14487585072 0.07624511221 6.2831853072 6.1990255847 0.42269159155 0.38179159818 0.3357925689 0.28391336087 0.22528907359 
0.15900377685 0.084159722458 0 5.6793730533 5.7091357773 5.5901633916 5.743164462 5.6152775188 5.4910209005 
5.7823484065 5.6444075337 5.5096229709 5.3824597928 5.8278025282 5.678536687 5.5314983644 5.3926039573 5.2659633393 
5.8809213739 5.718968232 5.5575666702 5.4046708639 5.2659633393 5.1440684722 5.9434319871 5.7674481418 5.5891129425 
5.4192596322 5.2659633393 5.1329233157 5.0201624502 6.0174235957 5.8263323547 5.6279784266 5.4372443565 5.2659633393 
5.1195510325 4.9978930058 4.8979782167 1.3852070904 1.2852923014 1.2630228569 1.1636342747 1.1502619915 1.139116835 
1.0172219679 1.0172219679 1.0172219679 1.0172219679 0.84594095064 0.86392567495 0.87851444325 0.89058134991 0.90072551443 
0.6552068806 0.69407236469 0.72561863695 0.75168694275 0.77356233629 0.79216440667 0.45685295248 0.51573716537 0.56421707518 
0.60464862014 0.63877777351 0.66790778838 0.69302191562 0.26576171152 0.33975332011 0.40226393329 0.45538277901 0.50083690068 
0.54002084522 0.57404952988 0.60381225391 
_paraPhiHalf 1 1002 double
0 3.1415926536 0 3.1415926536 1.5707963268 1.5707963268 1.5707963268 1.5707963268 2.5880182947 
0.5535743589 2.5880182947 0.5535743589 0 0 0 0 3.1415926536 3.1415926536 
3.1415926536 3.1415926536 3.1415926536 0.17788134 0.38438696014 0.60631181711 0.82323535693 1.0172219679 1.1799687454 
1.3118704726 1.4175000338 1.5022335207 0.17788134 0.38438696014 0.60631181711 0.82323535693 1.0172219679 1.1799687454 
1.3118704726 1.4175000338 1.5022335207 0.093902416448 0.17615329733 0.2478725152 0.31035131605 0.36486382811 0.41257334776 
0.45449736604 0.4915044461 0.52432611754 0.093902416448 0.17615329733 0.2478725152 0.31035131605 0.36486382811 0.41257334776 
0.45449736604 0.4915044461 0.52432611754 2.9637113136 2.7572056934 2.5352808365 2.3183572967 2.1243706857 1.9616239082 
1.829722181 1.7240926197 1.6393591329 2.9637113136 2.7572056934 2.5352808365 2.3183572967 2.1243706857 1.9616239082 
1.829722181 1.7240926197 1.6393591329 3.0476902371 2.9654393563 2.8937201384 2.8312413375 2.7767288255 2.7290193058 
2.6870952876 2.6500882075 2.617266536 3.0476902371 2.9654393563 2.8937201384 2.8312413375 2.7767288255 2.7290193058 
2.6870952876 2.6500882075 2.617266536 0 0 0 0 3.1415926536 3.1415926536 
3.1415926536 3.1415926536 3.1415926536 0.17788134 0.38438696014 0.60631181711 0.82323535693 1.0172219679 1.1799687454 
1.3118704726 1.4175000338 1.5022335207 0.17788134 0.38438696014 0.60631181711 0.82323535693 1.0172219679 1.1799687454 
1.3118704726 1.4175000338 1.5022335207 0.093902416448 0.17615329733 0.2478725152 0.31035131605 0.36486382811 0.41257334776 
0.45449736604 0.4915044461 0.52432611754 0.093902416448 0.17615329733 0.2478725152 0.31035131605 0.36486382811 0.41257334776 
0.45449736604 0.4915044461 0.52432611754 2.9637113136 2.7572056934 2.5352808365 2.3183572967 2.1243706857 1.9616239082 
1.829722181 1.7240926197 1.6393591329 2.9637113136 2.7572056934 2.5352808365 2.3183572967 2.1243706857 1.9616239082 
1.829722181 1.7240926197 1.6393591329 3.0476902371 2.9654393563 2.8937201384 2.8312413375 2.7767288255 2.7290193058 
2.6870952876 2.6500882075 2.617266536 3.0476902371 2.9654393563 2.8937201384 2.8312413375 2.7767288255 2.7290193058 
2.6870952876 2.6500882075 2.617266536 1.5707963268 1.5707963268 1.5707963268 1.5707963268 1.5707963268 1.5707963268 
1.5707963268 1.5707963268 1.5707963268 1.6743954455 1.7840462375 1.8974821136 2.0119052671 2.1243706857 2.232221744 
2.3334263672 2.426721652 2.5115728246 1.4671972081 1.3575464161 1.24411054 1.1296873865 1.0172219679 0.90937090954 
0.80816628637 0.71487100155 0.63001982895 1.6743954455 1.7840462375 1.8974821136 2.0119052671 2.1243706857 2.232221744 
2.3334263672 2.426721652 2.5115728246 1.4671972081 1.3575464161 1.24411054 1.1296873865 1.0172219679 0.90937090954 
0.80816628637 0.71487100155 0.63001982895 1.5707963268 1.5707963268 1.5707963268 1.5707963268 1.5707963268 1.5707963268 
1.5707963268 1.5707963268 1.5707963268 1.6743954455 1.7840462375 1.8974821136 2.0119052671 2.1243706857 2.232221744 
2.3334263672 2.426721652 2.5115728246 1.4671972081 1.3575464161 1.24411054 1.1296873865 1.0172219679 0.90937090954 
0.80816628637 0.71487100155 0.63001982895 1.6743954455 1.7840462375 1.8974821136 2.0119052671 2.1243706857 2.232221744 
2.3334263672 2.426721652 2.5115728246 1.4671972081 1.3575464161 1.24411054 1.1296873865 1.0172219679 0.90937090954 
0.80816628637 0.71487100155 0.63001982895 2.6824132222 2.7864913217 2.8992382033 3.0186096618 3.1415926536 3.0186096618 
2.8992382033 2.7864913217 2.6824132222 0.45917943135 0.35510133185 0.2423544503 0.12298299178 0 0.12298299178 
0.2423544503 0.35510133185 0.45917943135 0.22715816343 0.49462574053 0.3129712797 0.77059342779 0.68021497688 0.49462574053 
1.0172219679 1.0172219679 1.0172219679 1.0172219679 1.2156949949 1.271087727 1.3676273807 1.5707963268 2.1243706857 
1.3676273807 1.447813335 1.5707963268 1.7739652728 2.1243706857 2.6469669131 1.4827341049 1.5707963268 1.6937793186 
1.8705049266 2.1243706857 2.4613776767 2.8286213739 1.5707963268 1.6588585487 1.7739652728 1.9258976586 2.1243706857 
2.3709992258 2.6469669131 2.9144344902 0.26576171152 0.33975332011 0.45685295248 0.40226393329 0.51573716537 0.6552068806 
0.45538277901 0.56421707518 0.69407236469 0.84594095064 0.50083690068 0.60464862014 0.72561863695 0.86392567495 1.0172219679 
0.54002084522 0.63877777351 0.75168694275 0.87851444325 1.0172219679 1.1636342747 0.57404952988 0.66790778838 0.77356233629 
0.89058134991 1.0172219679 1.1502619915 1.2852923014 0.60381225391 0.69302191562 0.79216440667 0.90072551443 1.0172219679 
1.139116835 1.2630228569 1.3852070904 0.71487100155 0.80816628637 0.80816628637 0.90937090954 0.90937090954 0.90937090954 
1.0172219679 1.0172219679 1.0172219679 1.0172219679 1.1296873865 1.1296873865 1.1296873865 1.1296873865 1.1296873865 
1.24411054 1.24411054 1.24411054 1.24411054 1.24411054 1.24411054 1.3575464161 1.3575464161 1.3575464161 
1.3575464161 1.3575464161 1.3575464161 1.3575464161 1.4671972081 1.4671972081 1.4671972081 1.4671972081 1.4671972081 
1.4671972081 1.4671972081 1.4671972081 1.6743954455 1.6743954455 1.7840462375 1.6743954455 1.7840462375 1.8974821136 
1.6743954455 1.7840462375 1.8974821136 2.0119052671 1.6743954455 1.7840462375 1.8974821136 2.0119052671 2.1243706857 
1.6743954455 1.7840462375 1.8974821136 2.0119052671 2.1243706857 2.232221744 1.6743954455 1.7840462375 1.8974821136 
2.0119052671 2.1243706857 2.232221744 2.3334263672 1.6743954455 1.7840462375 1.8974821136 2.0119052671 2.1243706857 
2.232221744 2.3334263672 2.426721652 1.7563855631 1.8785697967 1.8563003522 2.0024758186 1.9913306621 1.9779583789 
2.1243706857 2.1243706857 2.1243706857 2.1243706857 2.2408671392 2.2510113037 2.2630782103 2.2776669786 2.295651703 
2.3494282469 2.3680303173 2.3899057108 2.4159740166 2.4475202889 2.486385773 2.448570738 2.4736848652 2.5028148801 
2.5369440334 2.5773755784 2.6258554882 2.6847397011 2.5377803997 2.5675431237 2.6015718084 2.6407557529 2.6862098746 
2.7393287203 2.8018393335 2.8758309421 2.718901062 2.8307207459 2.7598010554 2.95115522 2.8800620952 2.8058000847 
3.0774230472 3.00855263 2.9351694502 2.8576792927 3.0774230472 3.1415926536 3.0719036933 2.9967168029 2.91630358 
2.95115522 3.00855263 3.0719036933 3.1415926536 3.0653475414 2.9825888767 2.8307207459 2.8800620952 2.9351694502 
2.9967168029 3.0653475414 3.1415926536 3.0574329311 2.718901062 2.7598010554 2.8058000847 2.8576792927 2.91630358 
2.9825888767 3.0574329311 3.1415926536 2.718901062 2.7598010554 2.8307207459 2.8058000847 2.8800620952 2.95115522 
2.8576792927 2.9351694502 3.00855263 3.0774230472 2.91630358 2.9967168029 3.0719036933 3.1415926536 3.0774230472 
2.9825888767 3.0653475414 3.1415926536 3.0719036933 3.00855263 2.95115522 3.0574329311 3.1415926536 3.0653475414 