# vtk DataFile Version 5.1
vtk output
ASCII
DATASET POLYDATA
POINTS 100 float
-5.14256 3.498 1.90998 -5.14974 3.49411 1.90695 -5.17077 3.47954 1.90121 
-5.20486 3.45378 1.89345 -5.25079 3.41605 1.88471 -5.30704 3.36531 1.87614 
-5.37195 3.3004 1.86881 -5.44397 3.2201 1.86353 -5.52176 3.12329 1.8607 
-5.60438 3.0091 1.8603 -5.69131 2.87705 1.86192 -5.7825 2.7272 1.86487 
-5.87833 2.56019 1.86837 -5.9795 2.37724 1.87168 -6.08693 2.18009 1.8743 
-6.20164 1.97082 1.87599 -6.32459 1.7516 1.87682 -6.45663 1.52451 1.87705 
-6.59839 1.29123 1.87705 -6.75025 1.05292 1.87714 -6.91235 0.810114 1.87745 
-7.08461 0.562737 1.87787 -7.26673 0.31022 1.878 -7.45831 0.0516979 1.87725 
-7.65883 -0.213756 1.87489 -7.86771 -0.486908 1.87026 -8.08439 -0.768185 1.86285 
-8.30826 -1.05759 1.85242 -8.53875 -1.35472 1.83901 -8.77526 -1.65886 1.82292 
-9.0172 -1.96918 1.80455 -9.26396 -2.28493 1.78432 -9.51487 -2.6056 1.76245 
-9.76929 -2.93108 1.7389 -10.0265 -3.26165 1.71329 -10.2859 -3.59796 1.68496 
-10.547 -3.94082 1.65306 -10.8091 -4.2911 1.61676 -11.0722 -4.64944 1.57541 
-11.3362 -5.01623 1.52872 -11.6013 -5.39148 1.47686 -11.8681 -5.77491 1.42042 
-12.1373 -6.16611 1.36031 -12.4096 -6.56474 1.29755 -12.6859 -6.97072 1.23296 
-12.9667 -7.38445 1.1669 -13.252 -7.80685 1.09901 -13.5413 -8.2393 1.02812 
-13.8329 -8.68344 0.952238 -14.1246 -9.14088 0.868728 -14.4129 -9.61284 0.774618 
-14.6937 -10.0998 0.666986 -14.9621 -10.6011 0.543383 -15.2133 -11.1153 0.4022 
-15.4424 -11.6394 0.242938 -15.6452 -12.17 0.0663204 -15.8184 -12.7031 -0.125772 
-15.9603 -13.2348 -0.330514 -16.0703 -13.7617 -0.544478 -16.1497 -14.2812 -0.764031 
-16.2009 -14.7919 -0.985731 -16.2275 -15.2935 -1.20664 -16.2335 -15.7867 -1.42456 
-16.2233 -16.2727 -1.63805 -16.2009 -16.753 -1.84643 -16.1696 -17.2287 -2.04954 
-16.1318 -17.7005 -2.24758 -16.0888 -18.1681 -2.44082 -16.041 -18.6305 -2.62945 
-15.9881 -19.0859 -2.81342 -15.9292 -19.5324 -2.99246 -15.8633 -19.9679 -3.16609 
-15.7898 -20.3907 -3.33375 -15.7085 -20.7999 -3.49495 -15.62 -21.1951 -3.64935 
-15.5255 -21.5769 -3.79684 -15.4269 -21.9462 -3.93753 -15.3265 -22.3041 -4.0717 
-15.2271 -22.6515 -4.19962 -15.1313 -22.9887 -4.32149 -15.0416 -23.3154 -4.43723 
-14.96 -23.6303 -4.54645 -14.8882 -23.9316 -4.64845 -14.8275 -24.2172 -4.74223 
-14.7785 -24.4849 -4.8267 -14.7419 -24.7331 -4.90079 -14.7177 -24.9608 -4.96369 
-14.706 -25.1679 -5.01497 -14.7064 -25.3555 -5.05473 -14.7182 -25.5249 -5.08358 
-14.7404 -25.6781 -5.10261 -14.7716 -25.8168 -5.11333 -14.8096 -25.9426 -5.11742 
-14.8519 -26.0558 -5.11666 -14.8956 -26.1562 -5.11273 -14.9374 -26.2424 -5.1071 
-14.9741 -26.3127 -5.101 -15.0027 -26.3649 -5.09534 -15.0208 -26.3971 -5.09077 
-15.0269 -26.4081 -5.0877 
LINES 2 100
OFFSETS vtktypeint64
0 100 
CONNECTIVITY vtktypeint64
0 1 2 3 4 5 6 7 8 
9 10 11 12 13 14 15 16 17 
18 19 20 21 22 23 24 25 26 
27 28 29 30 31 32 33 34 35 
36 37 38 39 40 41 42 43 44 
45 46 47 48 49 50 51 52 53 
54 55 56 57 58 59 60 61 62 
63 64 65 66 67 68 69 70 71 
72 73 74 75 76 77 78 79 80 
81 82 83 84 85 86 87 88 89 
90 91 92 93 94 95 96 97 98 
99 
POINT_DATA 100
FIELD FieldData 3
_theta 1 100 double
0 0.031733259127 0.063466518254 0.095199777382 0.12693303651 0.15866629564 0.19039955476 0.22213281389 0.25386607302 
0.28559933214 0.31733259127 0.3490658504 0.38079910953 0.41253236865 0.44426562778 0.47599888691 0.50773214603 0.53946540516 
0.57119866429 0.60293192342 0.63466518254 0.66639844167 0.6981317008 0.72986495992 0.76159821905 0.79333147818 0.82506473731 
0.85679799643 0.88853125556 0.92026451469 0.95199777382 0.98373103294 1.0154642921 1.0471975512 1.0789308103 1.1106640695 
1.1423973286 1.1741305877 1.2058638468 1.237597106 1.2693303651 1.3010636242 1.3327968833 1.3645301425 1.3962634016 
1.4279966607 1.4597299198 1.491463179 1.5231964381 1.5549296972 1.5866629564 1.6183962155 1.6501294746 1.6818627337 
1.7135959929 1.745329252 1.7770625111 1.8087957702 1.8405290294 1.8722622885 1.9039955476 1.9357288068 1.9674620659 
1.999195325 2.0309285841 2.0626618433 2.0943951024 2.1261283615 2.1578616206 2.1895948798 2.2213281389 2.253061398 
2.2847946572 2.3165279163 2.3482611754 2.3799944345 2.4117276937 2.4434609528 2.4751942119 2.506927471 2.5386607302 
2.5703939893 2.6021272484 2.6338605076 2.6655937667 2.6973270258 2.7290602849 2.7607935441 2.7925268032 2.8242600623 
2.8559933214 2.8877265806 2.9194598397 2.9511930988 2.982926358 3.0146596171 3.0463928762 3.0781261353 3.1098593945 
3.1415926536 
_radius 1 100 double
9.607118502e-15 0.29318291995 0.58623222194 0.8788137675 1.1704104656 1.4602081901 1.746989915 2.0290847984 2.3044158394 
2.5706621949 2.8255125559 3.0669529618 3.2935201999 3.504463134 3.6997814819 3.8801431945 4.0467075833 4.2008958205 
4.3441523436 4.4777333219 4.6025473272 4.7190633197 4.8272930983 4.9268475167 5.0170564461 5.0971329708 5.1663560074 
5.2242445114 5.2706995134 5.3060942792 5.3312962301 5.3476084286 5.3566269464 5.3600252235 5.3592949099 5.3554873562 
5.3490029946 5.3394651113 5.3256966455 5.3058050022 5.2773764375 5.2377824653 5.1845926932 5.1160634183 5.0316344516 
4.9323335959 4.8209754966 4.7020610209 4.5813440343 4.4651398373 4.3595762802 4.2700337399 4.2008774092 4.1553343585 
4.135268996 4.1407982888 4.1699769086 4.2188491009 4.2819440088 4.3530533533 4.4260702155 4.4957216835 4.5580908416 
4.6108741427 4.6533686503 4.686224378 4.711020535 4.7297366865 4.7442042685 4.755640549 4.7643657982 4.7697646744 
4.7704803348 4.7647578548 4.7508172906 4.7271488093 4.6926694787 4.6467365975 4.5890510938 4.5194962056 4.4379488981 
4.3440916275 4.2372531883 4.1163177816 3.9797463497 3.8257381989 3.6525216561 3.4587149592 3.2436663746 3.0076826729 
2.752087582 2.479101069 2.191575776 1.8926547292 1.5854215427 1.2726053545 0.95638421125 0.63830807955 0.31934051041 
2.8443908532e-14 
_area 1 100 double
0 0.23949160802 0.95801731856 2.1550367404 3.8272999523 5.9653264791 8.5489215253 11.542891116 14.894702673 
18.535686294 22.386277256 26.364265966 30.393916541 34.413682717 38.380929796 42.272943319 46.084137967 49.819933347 
53.488599089 57.093262958 60.626357632 64.067605705 67.384954319 70.536918867 73.475143068 76.147210093 78.500871569 
80.490925828 82.088587632 83.29099654 84.12701061 84.65595258 84.958542455 85.122443849 85.226728 85.328903666 
85.455409824 85.593838397 85.685623022 85.622596817 85.255765112 84.422881547 82.991690859 80.905585795 78.215412544 
75.085336328 71.766119385 68.530385548 65.578936622 62.986731437 60.753233326 58.886331895 57.431369978 56.443187039 
55.945310956 55.921899094 56.332128463 57.108444014 58.141730591 59.286294526 60.391283211 61.335306666 62.045590595 
62.496260593 62.69460636 62.672969073 62.491597483 62.23651026 61.996446107 61.825306267 61.715616249 61.603257905 
61.398695351 61.022813967 60.428882641 59.604368041 58.556926621 57.294973003 55.81407498 54.096160189 52.120042527 
49.873748298 47.35909479 44.58708987 41.570497003 38.32115576 34.855014976 31.201780265 27.41292986 23.563108293 
19.743999848 16.053807127 12.587043338 9.4279096363 6.6475917497 4.3037985594 2.4409645753 1.0907921919 0.27353171673 
1.4210854715e-13 
