# vtk DataFile Version 5.1
vtk output
ASCII
DATASET POLYDATA
POINTS 1002 float
-9.00438 -0.268036 -3.55651 9.30046 -0.649527 -3.12311 -8.36355 0.422638 3.73285 
8.33103 -0.636111 2.65474 -1.45952 1.78 -2.15525 -1.47878 2.18606 1.67688 
-0.620343 -6.29622 -2.18282 0.155225 -6.81406 2.38723 15.6472 9.33096 0.619205 
-13.9772 7.95384 0.639604 14.8796 -2.39061 -0.0142512 -13.5926 -3.52484 -0.199293 
-7.80494 -0.607162 -3.58291 -6.38056 -1.00536 -3.63885 -4.70303 -1.42455 -3.6456 
-2.72424 -1.79697 -3.53416 -0.417396 -2.06754 -3.36748 2.04193 -2.15883 -3.24194 
4.33933 -1.99464 -3.16151 6.30526 -1.61719 -3.12485 7.94283 -1.14621 -3.13218 
-8.7782 0.219659 -3.59819 -8.45522 0.715954 -3.65533 -7.93041 1.20597 -3.64356 
-7.2324 1.66281 -3.5146 -6.50015 2.08411 -3.38494 -5.64126 2.43444 -3.3305 
-4.5238 2.56507 -3.20696 -3.36544 2.39914 -2.90754 -2.37767 2.07408 -2.51874 
-8.48364 -0.96636 -3.5453 -7.86302 -1.71347 -3.53111 -7.1146 -2.48831 -3.44477 
-6.2398 -3.25669 -3.29954 -5.29421 -3.99033 -3.1825 -4.31716 -4.63836 -3.04732 
-3.3171 -5.15533 -2.81162 -2.34118 -5.57821 -2.55634 -1.44069 -5.96082 -2.35945 
-10.0037 0.398973 -3.57602 -11.0335 1.20096 -3.54053 -12.0326 2.13697 -3.32022 
-12.9412 3.19537 -2.91595 -13.7298 4.34433 -2.47048 -14.2932 5.45499 -2.00412 
-14.5278 6.38667 -1.409 -14.504 7.11393 -0.705774 -14.3181 7.64381 -0.00799135 
-9.82966 -0.409493 -3.54149 -10.6437 -0.612624 -3.48319 -11.3635 -0.862785 -3.30066 
-12.0129 -1.18384 -3.02608 -12.6234 -1.59223 -2.76916 -13.0916 -2.04458 -2.48847 
-13.401 -2.50332 -2.03015 -13.6192 -2.93758 -1.39786 -13.6943 -3.28734 -0.750207 
9.01249 -0.221359 -3.09946 8.59683 0.188435 -3.04432 7.98663 0.560158 -2.97274 
7.18133 0.886097 -2.87587 6.25306 1.09424 -2.70195 5.14515 1.11242 -2.4442 
3.68427 1.0289 -2.22881 1.89165 1.03902 -2.16156 0.066041 1.28258 -2.1766 
8.7075 -1.39954 -3.1382 7.95603 -2.15722 -3.10626 7.03822 -2.91172 -3.03509 
5.95876 -3.66277 -3.00483 4.74349 -4.35873 -3.016 3.49224 -4.9148 -2.92784 
2.32046 -5.33237 -2.72916 1.25182 -5.69187 -2.54043 0.268548 -6.02281 -2.37424 
10.3997 0.212111 -3.04377 11.518 1.26638 -2.88289 12.6117 2.47383 -2.65378 
13.6116 3.76683 -2.37502 14.4919 5.09498 -2.05545 15.2287 6.41377 -1.74413 
15.7245 7.65339 -1.41567 15.9201 8.67319 -0.898759 15.8684 9.26887 -0.151961 
10.2217 -0.594101 -3.05165 11.1368 -0.520204 -2.87639 12.0199 -0.465223 -2.66302 
12.874 -0.516191 -2.46245 13.6453 -0.684566 -2.19112 14.2388 -0.890209 -1.81365 
14.6888 -1.12986 -1.41483 15.027 -1.47711 -0.993908 15.1209 -1.92743 -0.508889 
-7.18682 -0.0604293 3.77199 -5.80705 -0.542512 3.82166 -4.18236 -1.02003 3.82928 
-2.32477 -1.48757 3.6881 -0.321154 -1.8562 3.44586 1.70927 -1.98631 3.1922 
3.6609 -1.84781 2.91827 5.44578 -1.53158 2.70114 7.00506 -1.11503 2.63516 
-8.00651 0.802704 3.654 -7.56694 1.20416 3.56966 -7.01228 1.5754 3.45559 
-6.34201 1.87875 3.32119 -5.58706 2.11902 3.16993 -4.79999 2.28505 2.92543 
-3.99685 2.35057 2.59734 -3.15032 2.33704 2.28945 -2.28823 2.28022 2.00164 
-7.95706 -0.267849 3.83902 -7.37289 -1.05268 3.91441 -6.5446 -1.94872 3.90733 
-5.5076 -2.92304 3.83025 -4.3822 -3.9146 3.73519 -3.28134 -4.83883 3.57628 
-2.3001 -5.57572 3.29049 -1.449 -6.08721 2.94951 -0.641378 -6.46983 2.64661 
-9.25837 1.16999 3.61246 -10.1617 2.01199 3.42707 -11.0604 2.93935 3.21 
-11.9271 3.92484 3.01923 -12.6844 4.89971 2.82999 -13.2625 5.80054 2.58138 
-13.6924 6.60935 2.24714 -13.9851 7.28647 1.79578 -14.0775 7.75001 1.23251 
-9.30222 0.492189 3.71252 -10.3663 0.520532 3.56059 -11.488 0.409643 3.26777 
-12.5427 0.082837 2.90358 -13.4222 -0.446167 2.45633 -14.0022 -1.11085 1.88751 
-14.2084 -1.83733 1.29401 -14.1352 -2.5315 0.76613 -13.9143 -3.10539 0.278764 
7.87964 -0.340375 2.56639 7.29664 -0.0547127 2.4723 6.53765 0.18117 2.3793 
5.59062 0.328415 2.25246 4.51226 0.436383 2.10713 3.31331 0.589458 2.01333 
1.98 0.81871 1.96565 0.643999 1.15363 1.90095 -0.523184 1.62072 1.7987 
7.93254 -1.26213 2.71216 7.43348 -1.94692 2.76667 6.82851 -2.71812 2.81637 
6.14064 -3.52989 2.85 5.35584 -4.29514 2.87374 4.43188 -5.00399 2.87737 
3.40769 -5.64752 2.81568 2.34778 -6.16001 2.68863 1.25552 -6.53108 2.54072 
9.33521 0.128452 2.60225 10.3766 1.03131 2.46517 11.4185 2.01943 2.29134 
12.4609 3.12714 2.19555 13.4596 4.39739 2.18379 14.291 5.69379 2.19134 
14.9384 6.8849 2.15469 15.4347 7.97762 1.91373 15.6921 8.86479 1.35833 
9.33828 -0.523105 2.68637 10.3491 -0.473926 2.6391 11.31 -0.553606 2.51328 
12.1858 -0.770195 2.31362 12.9883 -1.06224 2.03019 13.6602 -1.38308 1.71941 
14.1435 -1.72941 1.42382 14.522 -2.04914 1.05654 14.8141 -2.26498 0.55349 
-1.6586 2.02394 -1.89127 -1.76251 2.30877 -1.59696 -1.75053 2.60887 -1.28175 
-1.66917 2.84635 -0.916199 -1.59297 2.95841 -0.480697 -1.57845 2.96746 -0.0167989 
-1.59976 2.90092 0.448296 -1.58787 2.73665 0.914894 -1.53638 2.48064 1.34002 
0.710384 1.41462 -1.86139 3.55123 1.77423 -1.64781 6.2607 2.85113 -1.57576 
8.1237 4.20532 -1.55993 9.56598 5.46209 -1.40786 11.2426 6.57222 -1.05084 
12.8747 7.62086 -0.64172 14.0779 8.58111 -0.278874 14.9618 9.22064 0.12551 
-3.1043 2.76439 -2.24847 -4.36675 3.91552 -2.17555 -5.74039 4.8209 -1.93792 
-7.37314 5.54065 -1.59341 -8.84655 6.33007 -1.18238 -10.1037 7.08176 -0.782648 
-11.3397 7.63645 -0.437849 -12.4139 8.00706 -0.0857994 -13.2525 8.13533 0.294719 
-0.0157947 1.74089 1.38601 1.92854 1.55415 1.12785 4.42855 1.9714 1.02233 
6.99742 3.07663 1.05533 9.0623 4.47291 1.08521 10.7987 5.76103 1.07077 
12.5125 6.9522 1.08373 13.9519 8.09522 1.08541 14.9354 8.96725 0.941004 
-2.83231 2.94039 1.76687 -4.23531 3.81697 1.86773 -5.64265 4.75115 1.9766 
-6.98619 5.71377 2.03632 -8.30257 6.61355 2.00943 -9.60233 7.33201 1.93332 
-10.8183 7.85923 1.78647 -11.9598 8.18826 1.49403 -13.0383 8.22674 1.08123 
-0.646648 -6.6218 -1.89541 -0.675852 -6.92929 -1.52051 -0.73934 -7.24565 -1.06541 
-0.804791 -7.56153 -0.515871 -0.784657 -7.76501 0.0878551 -0.680865 -7.77228 0.646993 
-0.536119 -7.64158 1.15832 -0.327364 -7.43942 1.65528 -0.070081 -7.16012 2.08117 
0.763274 -6.43777 -2.11076 2.29617 -6.53809 -2.01777 3.90674 -6.60484 -1.95378 
5.53953 -6.60156 -1.93166 7.27767 -6.32298 -1.85535 9.20741 -5.60315 -1.64404 
11.1828 -4.63606 -1.3188 12.8996 -3.74729 -0.918359 14.1368 -3.02483 -0.468772 
-2.00236 -6.33784 -2.08541 -3.49379 -6.38345 -2.00045 -5.04802 -6.42338 -1.92096 
-6.57732 -6.34214 -1.77247 -8.03774 -6.09003 -1.54573 -9.4457 -5.79467 -1.32097 
-10.7343 -5.46821 -1.09383 -11.8255 -4.96363 -0.807997 -12.765 -4.27436 -0.489672 
1.69187 -7.01806 2.24501 3.31328 -7.16585 2.08242 4.91288 -7.11249 1.86412 
6.52754 -6.89949 1.63742 8.21384 -6.51848 1.45167 9.90863 -5.80834 1.22118 
11.4828 -4.88103 0.864714 12.86 -4.00559 0.482007 14.0083 -3.20269 0.194966 
-1.44649 -6.91119 2.39459 -3.06579 -7.09404 2.40074 -4.67419 -7.18038 2.2972 
-6.37862 -6.99349 2.02506 -8.22481 -6.65044 1.67625 -9.9468 -6.26701 1.31301 
-11.2331 -5.71935 0.903074 -12.142 -4.98311 0.486243 -12.9047 -4.21652 0.127311 
16.4081 8.98013 0.696849 17.0448 7.98322 0.738256 17.3908 6.58557 0.72443 
17.509 5.20016 0.691553 17.4245 3.88095 0.617645 17.0371 2.44532 0.451249 
16.5273 0.995741 0.291188 16.0805 -0.289794 0.212136 15.5706 -1.41643 0.126072 
-14.939 7.34401 0.529186 -15.7729 6.46959 0.386507 -16.2326 5.44077 0.229909 
-16.329 4.23671 0.0287791 -16.2538 2.79149 -0.197771 -16.0746 1.21139 -0.363219 
-15.7559 -0.288991 -0.414915 -15.2251 -1.56371 -0.361071 -14.461 -2.61387 -0.26501 
-7.46588 -0.172978 -3.63517 -6.95983 0.265347 -3.6842 -5.88685 -0.608199 -3.66427 
-6.24132 0.681805 -3.65219 -5.19399 -0.21541 -3.65144 -4.00641 -1.04746 -3.5943 
-5.48298 1.05343 -3.55972 -4.33453 0.107856 -3.58482 -3.09154 -0.710818 -3.48791 
-1.73408 -1.44825 -3.41318 -4.70432 1.38596 -3.48582 -3.40585 0.363655 -3.49089 
-1.94915 -0.466204 -3.3574 -0.488047 -1.13178 -3.246 0.889807 -1.70024 -3.24215 
-3.6259 1.58636 -3.33433 -2.2426 0.594411 -3.30607 -0.573651 -0.203985 -3.1752 
1.00298 -0.778681 -3.06842 2.36659 -1.24187 -3.08301 3.49059 -1.64455 -3.14474 
-2.30096 1.54243 -2.98865 -0.784556 0.745206 -2.93892 0.988048 0.15301 -2.86655 
2.58881 -0.24612 -2.8614 3.86283 -0.590805 -2.9386 4.90474 -0.939467 -3.03707 
5.71648 -1.27919 -3.09662 -1.05717 1.37036 -2.55256 0.648381 0.842564 -2.50043 
2.4666 0.557176 -2.49979 4.017 0.420824 -2.62885 5.18865 0.238386 -2.81349 
6.14532 -0.0574181 -2.95804 6.94102 -0.401347 -3.04114 7.528 -0.764421 -3.09302 
-9.8072 0.995194 -3.60042 -10.8353 1.91386 -3.48095 -9.50364 1.60399 -3.59889 
-11.7868 2.95199 -3.14537 -10.5145 2.63053 -3.3759 -8.98028 2.18729 -3.48673 
-12.622 4.07607 -2.67733 -11.3708 3.73498 -2.96945 -9.94726 3.28139 -3.18989 
-8.23734 2.69804 -3.27607 -13.2919 5.20917 -2.19279 -12.0454 4.84509 -2.46846 
-10.6796 4.38906 -2.76929 -9.10045 3.77837 -2.95212 -7.33316 3.11923 -3.12063 
-13.6596 6.23189 -1.64769 -12.5127 5.87983 -1.9149 -11.1693 5.42124 -2.24295 
-9.7182 4.79438 -2.52221 -7.99871 4.08426 -2.75646 -6.20646 3.39631 -3.03791 
-13.7015 7.08583 -1.00613 -12.6952 6.78928 -1.30064 -11.4241 6.33715 -1.63561 
-10.0692 5.70517 -1.97951 -8.50324 4.93109 -2.2834 -6.67023 4.21207 -2.60041 
-4.9686 3.41654 -2.87566 -13.5432 7.73838 -0.343414 -12.6303 7.5253 -0.676792 
-11.4545 7.10281 -1.01097 -10.1611 6.49411 -1.37482 -8.77932 5.69418 -1.74747 
-7.08393 4.91659 -2.09788 -5.36858 4.16084 -2.41346 -3.92314 3.16565 -2.58608 
-12.2666 8.2591 0.64902 -11.0987 8.06294 0.958171 -11.2919 7.98193 0.192529 
-9.81571 7.64419 1.20287 -9.99213 7.66368 0.446529 -10.0857 7.48062 -0.190358 
-8.49241 7.07144 1.40616 -8.66101 7.15726 0.681304 -8.78948 7.02887 0.0268997 
-8.83777 6.77429 -0.585365 -7.16333 6.30105 1.5667 -7.32386 6.52929 0.895325 
-7.48317 6.44075 0.213369 -7.52631 6.26106 -0.435154 -7.46119 5.98444 -1.05866 
-5.78616 5.36544 1.61142 -5.88292 5.76407 1.03387 -6.00203 5.83046 0.378575 
-6.06505 5.73516 -0.277374 -5.9803 5.58515 -0.925825 -5.85001 5.27913 -1.4859 
-4.3446 4.36492 1.53671 -4.38625 4.82649 1.04159 -4.41523 5.06191 0.469375 
[...]
POINT_DATA 1002
FIELD FieldData 4
_paraPhi 1 1002 double
6.2831853072 3.1415926536 6.2831853072 3.1415926536 4.7123889804 4.7123889804 1.5707963268 1.5707963268 3.6951670125 
5.7296109483 2.5880182947 0.5535743589 6.2831853072 6.2831853072 6.2831853072 6.2831853072 3.1415926536 3.1415926536 
3.1415926536 3.1415926536 3.1415926536 6.1053039672 5.898798347 5.6768734901 5.4599499503 5.2659633393 5.1032165617 
4.9713148346 4.8656852733 4.7809517865 0.17788134 0.38438696014 0.60631181711 0.82323535693 1.0172219679 1.1799687454 
1.3118704726 1.4175000338 1.5022335207 6.1892828907 6.1070320098 6.035312792 5.9728339911 5.9183214791 5.8706119594 
5.8286879411 5.7916808611 5.7588591896 0.093902416448 0.17615329733 0.2478725152 0.31035131605 0.36486382811 0.41257334776 
0.45449736604 0.4915044461 0.52432611754 3.3194739936 3.5259796137 3.7479044707 3.9648280105 4.1588146215 4.321561399 
4.4534631262 4.5590926874 4.6438261743 2.9637113136 2.7572056934 2.5352808365 2.3183572967 2.1243706857 1.9616239082 
1.829722181 1.7240926197 1.6393591329 3.23549507 3.3177459509 3.3894651688 3.4519439696 3.5064564817 3.5541660013 
3.5960900196 3.6330970997 3.6659187711 3.0476902371 2.9654393563 2.8937201384 2.8312413375 2.7767288255 2.7290193058 
2.6870952876 2.6500882075 2.617266536 6.2831853072 6.2831853072 6.2831853072 6.2831853072 3.1415926536 3.1415926536 
3.1415926536 3.1415926536 3.1415926536 6.1053039672 5.898798347 5.6768734901 5.4599499503 5.2659633393 5.1032165617 
4.9713148346 4.8656852733 4.7809517865 0.17788134 0.38438696014 0.60631181711 0.82323535693 1.0172219679 1.1799687454 
1.3118704726 1.4175000338 1.5022335207 6.1892828907 6.1070320098 6.035312792 5.9728339911 5.9183214791 5.8706119594 
5.8286879411 5.7916808611 5.7588591896 0.093902416448 0.17615329733 0.2478725152 0.31035131605 0.36486382811 0.41257334776 
0.45449736604 0.4915044461 0.52432611754 3.3194739936 3.5259796137 3.7479044707 3.9648280105 4.1588146215 4.321561399 
4.4534631262 4.5590926874 4.6438261743 2.9637113136 2.7572056934 2.5352808365 2.3183572967 2.1243706857 1.9616239082 
1.829722181 1.7240926197 1.6393591329 3.23549507 3.3177459509 3.3894651688 3.4519439696 3.5064564817 3.5541660013 
3.5960900196 3.6330970997 3.6659187711 3.0476902371 2.9654393563 2.8937201384 2.8312413375 2.7767288255 2.7290193058 
2.6870952876 2.6500882075 2.617266536 4.7123889804 4.7123889804 4.7123889804 4.7123889804 4.7123889804 4.7123889804 
4.7123889804 4.7123889804 4.7123889804 4.6087898617 4.4991390697 4.3857031936 4.2712800401 4.1588146215 4.0509635631 
3.94975894 3.8564636551 3.7716124825 4.8159880991 4.9256388911 5.0390747672 5.1534979207 5.2659633393 5.3738143976 
5.4750190208 5.5683143056 5.6531654782 4.6087898617 4.4991390697 4.3857031936 4.2712800401 4.1588146215 4.0509635631 
3.94975894 3.8564636551 3.7716124825 4.8159880991 4.9256388911 5.0390747672 5.1534979207 5.2659633393 5.3738143976 
5.4750190208 5.5683143056 5.6531654782 1.5707963268 1.5707963268 1.5707963268 1.5707963268 1.5707963268 1.5707963268 
1.5707963268 1.5707963268 1.5707963268 1.6743954455 1.7840462375 1.8974821136 2.0119052671 2.1243706857 2.232221744 
2.3334263672 2.426721652 2.5115728246 1.4671972081 1.3575464161 1.24411054 1.1296873865 1.0172219679 0.90937090954 
0.80816628637 0.71487100155 0.63001982895 1.6743954455 1.7840462375 1.8974821136 2.0119052671 2.1243706857 2.232221744 
2.3334263672 2.426721652 2.5115728246 1.4671972081 1.3575464161 1.24411054 1.1296873865 1.0172219679 0.90937090954 
0.80816628637 0.71487100155 0.63001982895 3.6007720849 3.4966939854 3.3839471039 3.2645756454 3.1415926536 3.0186096618 
2.8992382033 2.7864913217 2.6824132222 5.8240058758 5.9280839753 6.0408308569 6.1602023154 6.2831853072 0.12298299178 
0.2423544503 0.35510133185 0.45917943135 6.0560271438 5.7885595667 5.9702140275 5.5125918794 5.6029703303 5.7885595667 
5.2659633393 5.2659633393 5.2659633393 5.2659633393 5.0674903122 5.0120975802 4.9155579264 4.7123889804 4.1588146215 
4.9155579264 4.8353719722 4.7123889804 4.5092200343 4.1588146215 3.6362183941 4.8004512023 4.7123889804 4.5894059886 
4.4126803806 4.1588146215 3.8218076305 3.4545639333 4.7123889804 4.6243267584 4.5092200343 4.3572876485 4.1588146215 
3.9121860814 3.6362183941 3.368750817 6.0174235957 5.9434319871 5.8263323547 5.8809213739 5.7674481418 5.6279784266 
5.8278025282 5.718968232 5.5891129425 5.4372443565 5.7823484065 5.678536687 5.5575666702 5.4192596322 5.2659633393 
5.743164462 5.6444075337 5.5314983644 5.4046708639 5.2659633393 5.1195510325 5.7091357773 5.6152775188 5.5096229709 
5.3926039573 5.2659633393 5.1329233157 4.9978930058 5.6793730533 5.5901633916 5.4910209005 5.3824597928 5.2659633393 
5.1440684722 5.0201624502 4.8979782167 5.5683143056 5.4750190208 5.4750190208 5.3738143976 5.3738143976 5.3738143976 
5.2659633393 5.2659633393 5.2659633393 5.2659633393 5.1534979207 5.1534979207 5.1534979207 5.1534979207 5.1534979207 
5.0390747672 5.0390747672 5.0390747672 5.0390747672 5.0390747672 5.0390747672 4.9256388911 4.9256388911 4.9256388911 
4.9256388911 4.9256388911 4.9256388911 4.9256388911 4.8159880991 4.8159880991 4.8159880991 4.8159880991 4.8159880991 
4.8159880991 4.8159880991 4.8159880991 4.6087898617 4.6087898617 4.4991390697 4.6087898617 4.4991390697 4.3857031936 
4.6087898617 4.4991390697 4.3857031936 4.2712800401 4.6087898617 4.4991390697 4.3857031936 4.2712800401 4.1588146215 
4.6087898617 4.4991390697 4.3857031936 4.2712800401 4.1588146215 4.0509635631 4.6087898617 4.4991390697 4.3857031936 
4.2712800401 4.1588146215 4.0509635631 3.94975894 4.6087898617 4.4991390697 4.3857031936 4.2712800401 4.1588146215 
4.0509635631 3.94975894 3.8564636551 4.526799744 4.4046155105 4.426884955 4.2807094886 4.2918546451 4.3052269283 
4.1588146215 4.1588146215 4.1588146215 4.1588146215 4.042318168 4.0321740035 4.0201070968 4.0055183285 3.9875336042 
3.9337570603 3.9151549899 3.8932795963 3.8672112905 3.8356650183 3.7967995342 3.8346145692 3.809500442 3.7803704271 
3.7462412737 3.7058097288 3.657329819 3.5984456061 3.7454049075 3.7156421835 3.6816134988 3.6424295543 3.5969754326 
3.5438565869 3.4813459737 3.4073543651 3.5642842451 3.4524645613 3.5233842518 3.3320300872 3.403123212 3.4773852225 
3.20576226 3.2746326772 3.348015857 3.4255060145 3.0774230472 3.1415926536 3.2112816139 3.2864685043 3.3668817272 
2.95115522 3.00855263 3.0719036933 3.1415926536 3.2178377658 3.3005964304 2.8307207459 2.8800620952 2.9351694502 
2.9967168029 3.0653475414 3.1415926536 3.225752376 2.718901062 2.7598010554 2.8058000847 2.8576792927 2.91630358 
2.9825888767 3.0574329311 3.1415926536 3.5642842451 3.5233842518 3.4524645613 3.4773852225 3.403123212 3.3320300872 
3.4255060145 3.348015857 3.2746326772 3.20576226 3.3668817272 3.2864685043 3.2112816139 3.1415926536 3.0774230472 
3.3005964304 3.2178377658 3.1415926536 3.0719036933 3.00855263 2.95115522 3.225752376 3.1415926536 3.0653475414 
2.9967168029 2.9351694502 2.8800620952 2.8307207459 3.1415926536 3.0574329311 2.9825888767 2.91630358 2.8576792927 
2.8058000847 2.7598010554 2.718901062 4.526799744 4.426884955 4.4046155105 4.3052269283 4.2918546451 4.2807094886 
4.1588146215 4.1588146215 4.1588146215 4.1588146215 3.9875336042 4.0055183285 4.0201070968 4.0321740035 4.042318168 
3.7967995342 3.8356650183 3.8672112905 3.8932795963 3.9151549899 3.9337570603 3.5984456061 3.657329819 3.7058097288 
3.7462412737 3.7803704271 3.809500442 3.8346145692 3.4073543651 3.4813459737 3.5438565869 3.5969754326 3.6424295543 
3.6816134988 3.7156421835 3.7454049075 4.7123889804 4.8004512023 4.6243267584 4.9155579264 4.7123889804 4.5092200343 
5.0674903122 4.8353719722 4.5894059886 4.3572876485 5.2659633393 5.0120975802 4.7123889804 4.4126803806 4.1588146215 
5.5125918794 5.2659633393 4.9155579264 4.5092200343 4.1588146215 3.9121860814 5.7885595667 5.6029703303 5.2659633393 
4.7123889804 4.1588146215 3.8218076305 3.6362183941 6.0560271438 5.9702140275 5.7885595667 5.2659633393 4.1588146215 
3.6362183941 3.4545639333 3.368750817 0.22715816343 0.49462574053 0.3129712797 0.77059342779 0.68021497688 0.49462574053 
1.0172219679 1.0172219679 1.0172219679 1.0172219679 1.2156949949 1.271087727 1.3676273807 1.5707963268 2.1243706857 
1.3676273807 1.447813335 1.5707963268 1.7739652728 2.1243706857 2.6469669131 1.4827341049 1.5707963268 1.6937793186 
1.8705049266 2.1243706857 2.4613776767 2.8286213739 1.5707963268 1.6588585487 1.7739652728 1.9258976586 2.1243706857 
2.3709992258 2.6469669131 2.9144344902 1.7563855631 1.8785697967 1.8563003522 2.0024758186 1.9913306621 1.9779583789 
2.1243706857 2.1243706857 2.1243706857 2.1243706857 2.2408671392 2.2510113037 2.2630782103 2.2776669786 2.295651703 
2.3494282469 2.3680303173 2.3899057108 2.4159740166 2.4475202889 2.486385773 2.448570738 2.4736848652 2.5028148801 
2.5369440334 2.5773755784 2.6258554882 2.6847397011 2.5377803997 2.5675431237 2.6015718084 2.6407557529 2.6862098746 
2.7393287203 2.8018393335 2.8758309421 1.6743954455 1.6743954455 1.7840462375 1.6743954455 1.7840462375 1.8974821136 
1.6743954455 1.7840462375 1.8974821136 2.0119052671 1.6743954455 1.7840462375 1.8974821136 2.0119052671 2.1243706857 
1.6743954455 1.7840462375 1.8974821136 2.0119052671 2.1243706857 2.232221744 1.6743954455 1.7840462375 1.8974821136 
2.0119052671 2.1243706857 2.232221744 2.3334263672 1.6743954455 1.7840462375 1.8974821136 2.0119052671 2.1243706857 
2.232221744 2.3334263672 2.426721652 1.4671972081 1.3575464161 1.4671972081 1.24411054 1.3575464161 1.4671972081 
1.1296873865 1.24411054 1.3575464161 1.4671972081 1.0172219679 1.1296873865 1.24411054 1.3575464161 1.4671972081 
0.90937090954 1.0172219679 1.1296873865 1.24411054 1.3575464161 1.4671972081 0.80816628637 0.90937090954 1.0172219679 
1.1296873865 1.24411054 1.3575464161 1.4671972081 0.71487100155 0.80816628637 0.90937090954 1.0172219679 1.1296873865 
1.24411054 1.3575464161 1.4671972081 0.60381225391 0.57404952988 0.69302191562 0.54002084522 0.66790778838 0.79216440667 
0.50083690068 0.63877777351 0.77356233629 0.90072551443 0.45538277901 0.60464862014 0.75168694275 0.89058134991 1.0172219679 
0.40226393329 0.56421707518 0.72561863695 0.87851444325 1.0172219679 1.139116835 0.33975332011 0.51573716537 0.69407236469 
0.86392567495 1.0172219679 1.1502619915 1.2630228569 0.26576171152 0.45685295248 0.6552068806 0.84594095064 1.0172219679 
1.1636342747 1.2852923014 1.3852070904 0.22715816343 0.3129712797 0.49462574053 0.49462574053 0.68021497688 0.77059342779 
1.0172219679 1.0172219679 1.0172219679 1.0172219679 2.1243706857 1.5707963268 1.3676273807 1.271087727 1.2156949949 
2.6469669131 2.1243706857 1.7739652728 1.5707963268 1.447813335 1.3676273807 2.8286213739 2.4613776767 2.1243706857 
1.8705049266 1.6937793186 1.5707963268 1.4827341049 2.9144344902 2.6469669131 2.3709992258 2.1243706857 1.9258976586 
1.7739652728 1.6588585487 1.5707963268 1.7563855631 1.8563003522 1.8785697967 1.9779583789 1.9913306621 2.0024758186 
2.1243706857 2.1243706857 2.1243706857 2.1243706857 2.295651703 2.2776669786 2.2630782103 2.2510113037 2.2408671392 
2.486385773 2.4475202889 2.4159740166 2.3899057108 2.3680303173 2.3494282469 2.6847397011 2.6258554882 2.5773755784 
2.5369440334 2.5028148801 2.4736848652 2.448570738 2.8758309421 2.8018393335 2.7393287203 2.6862098746 2.6407557529 
2.6015718084 2.5675431237 2.5377803997 5.8604937156 5.901393709 5.9723133995 5.9473927383 6.0216547488 6.0927478736 
5.9992719463 6.0767621038 6.1501452836 6.2190157008 6.0578962336 6.1383094565 6.2134963469 0 0.064169606361 
6.1241815303 6.206940195 6.2831853072 0.069688960264 0.13304002361 0.19043743361 6.1990255847 0 0.07624511221 
0.14487585072 0.20642320337 0.26153055843 0.3108719077 0 0.084159722458 0.15900377685 0.22528907359 0.28391336087 
0.3357925689 0.38179159818 0.42269159155 5.8604937156 5.9723133995 5.901393709 6.0927478736 6.0216547488 5.9473927383 
6.2190157008 6.1501452836 6.0767621038 5.9992719463 0.064169606361 0 6.2134963469 6.1383094565 6.0578962336 
0.19043743361 0.13304002361 0.069688960264 6.2831853072 6.206940195 6.1241815303 0.3108719077 0.26153055843 0.20642320337 
0.14487585072 0.07624511221 6.2831853072 6.1990255847 0.42269159155 0.38179159818 0.3357925689 0.28391336087 0.22528907359 
0.15900377685 0.084159722458 0 5.6793730533 5.7091357773 5.5901633916 5.743164462 5.6152775188 5.4910209005 
5.7823484065 5.6444075337 5.5096229709 5.3824597928 5.8278025282 5.678536687 5.5314983644 5.3926039573 5.2659633393 
5.8809213739 5.718968232 5.5575666702 5.4046708639 5.2659633393 5.1440684722 5.9434319871 5.7674481418 5.5891129425 
5.4192596322 5.2659633393 5.1329233157 5.0201624502 6.0174235957 5.8263323547 5.6279784266 5.4372443565 5.2659633393 
5.1195510325 4.9978930058 4.8979782167 1.3852070904 1.2852923014 1.2630228569 1.1636342747 1.1502619915 1.139116835 
1.0172219679 1.0172219679 1.0172219679 1.0172219679 0.84594095064 0.86392567495 0.87851444325 0.89058134991 0.90072551443 
0.6552068806 0.69407236469 0.72561863695 0.75168694275 0.77356233629 0.79216440667 0.45685295248 0.51573716537 0.56421707518 
0.60464862014 0.63877777351 0.66790778838 0.69302191562 0.26576171152 0.33975332011 0.40226393329 0.45538277901 0.50083690068 
0.54002084522 0.57404952988 0.60381225391 
_paraPhiHalf 1 1002 double
0 3.1415926536 0 3.1415926536 1.5707963268 1.5707963268 1.5707963268 1.5707963268 2.5880182947 
0.5535743589 2.5880182947 0.5535743589 0 0 0 0 3.1415926536 3.1415926536 
3.1415926536 3.1415926536 3.1415926536 0.17788134 0.38438696014 0.60631181711 0.82323535693 1.0172219679 1.1799687454 
1.3118704726 1.4175000338 1.5022335207 0.17788134 0.38438696014 0.60631181711 0.82323535693 1.0172219679 1.1799687454 
1.3118704726 1.4175000338 1.5022335207 0.093902416448 0.17615329733 0.2478725152 0.31035131605 0.36486382811 0.41257334776 
0.45449736604 0.4915044461 0.52432611754 0.093902416448 0.17615329733 0.2478725152 0.31035131605 0.36486382811 0.41257334776 
0.45449736604 0.4915044461 0.52432611754 2.9637113136 2.7572056934 2.5352808365 2.3183572967 2.1243706857 1.9616239082 
1.829722181 1.7240926197 1.6393591329 2.9637113136 2.7572056934 2.5352808365 2.3183572967 2.1243706857 1.9616239082 
1.829722181 1.7240926197 1.6393591329 3.0476902371 2.9654393563 2.8937201384 2.8312413375 2.7767288255 2.7290193058 
2.6870952876 2.6500882075 2.617266536 3.0476902371 2.9654393563 2.8937201384 2.8312413375 2.7767288255 2.7290193058 
2.6870952876 2.6500882075 2.617266536 0 0 0 0 3.1415926536 3.1415926536 
3.1415926536 3.1415926536 3.1415926536 0.17788134 0.38438696014 0.60631181711 0.82323535693 1.0172219679 1.1799687454 
1.3118704726 1.4175000338 1.5022335207 0.17788134 0.38438696014 0.60631181711 0.82323535693 1.0172219679 1.1799687454 
1.3118704726 1.4175000338 1.5022335207 0.093902416448 0.17615329733 0.2478725152 0.31035131605 0.36486382811 0.41257334776 
0.45449736604 0.4915044461 0.52432611754 0.093902416448 0.17615329733 0.2478725152 0.31035131605 0.36486382811 0.41257334776 
0.45449736604 0.4915044461 0.52432611754 2.9637113136 2.7572056934 2.5352808365 2.3183572967 2.1243706857 1.9616239082 
1.829722181 1.7240926197 1.6393591329 2.9637113136 2.7572056934 2.5352808365 2.3183572967 2.1243706857 1.9616239082 
1.829722181 1.7240926197 1.6393591329 3.0476902371 2.9654393563 2.8937201384 2.8312413375 2.7767288255 2.7290193058 
2.6870952876 2.6500882075 2.617266536 3.0476902371 2.9654393563 2.8937201384 2.8312413375 2.7767288255 2.7290193058 
2.6870952876 2.6500882075 2.617266536 1.5707963268 1.5707963268 1.5707963268 1.5707963268 1.5707963268 1.5707963268 
1.5707963268 1.5707963268 1.5707963268 1.6743954455 1.7840462375 1.8974821136 2.0119052671 2.1243706857 2.232221744 
2.3334263672 2.426721652 2.5115728246 1.4671972081 1.3575464161 1.24411054 1.1296873865 1.0172219679 0.90937090954 
0.80816628637 0.71487100155 0.63001982895 1.6743954455 1.7840462375 1.8974821136 2.0119052671 2.1243706857 2.232221744 
2.3334263672 2.426721652 2.5115728246 1.4671972081 1.3575464161 1.24411054 1.1296873865 1.0172219679 0.90937090954 
0.80816628637 0.71487100155 0.63001982895 1.5707963268 1.5707963268 1.5707963268 1.5707963268 1.5707963268 1.5707963268 
1.5707963268 1.5707963268 1.5707963268 1.6743954455 1.7840462375 1.8974821136 2.0119052671 2.1243706857 2.232221744 
2.3334263672 2.426721652 2.5115728246 1.4671972081 1.3575464161 1.24411054 1.1296873865 1.0172219679 0.90937090954 
0.80816628637 0.71487100155 0.63001982895 1.6743954455 1.7840462375 1.8974821136 2.0119052671 2.1243706857 2.232221744 
2.3334263672 2.426721652 2.5115728246 1.4671972081 1.3575464161 1.24411054 1.1296873865 1.0172219679 0.90937090954 
0.80816628637 0.71487100155 0.63001982895 2.6824132222 2.7864913217 2.8992382033 3.0186096618 3.1415926536 3.0186096618 
2.8992382033 2.7864913217 2.6824132222 0.45917943135 0.35510133185 0.2423544503 0.12298299178 0 0.12298299178 
0.2423544503 0.35510133185 0.45917943135 0.22715816343 0.49462574053 0.3129712797 0.77059342779 0.68021497688 0.49462574053 
1.0172219679 1.0172219679 1.0172219679 1.0172219679 1.2156949949 1.271087727 1.3676273807 1.5707963268 2.1243706857 
1.3676273807 1.447813335 1.5707963268 1.7739652728 2.1243706857 2.6469669131 1.4827341049 1.5707963268 1.6937793186 
1.8705049266 2.1243706857 2.4613776767 2.8286213739 1.5707963268 1.6588585487 1.7739652728 1.9258976586 2.1243706857 
2.3709992258 2.6469669131 2.9144344902 0.26576171152 0.33975332011 0.45685295248 0.40226393329 0.51573716537 0.6552068806 
0.45538277901 0.56421707518 0.69407236469 0.84594095064 0.50083690068 0.60464862014 0.72561863695 0.86392567495 1.0172219679 
0.54002084522 0.63877777351 0.75168694275 0.87851444325 1.0172219679 1.1636342747 0.57404952988 0.66790778838 0.77356233629 
0.89058134991 1.0172219679 1.1502619915 1.2852923014 0.60381225391 0.69302191562 0.79216440667 0.90072551443 1.0172219679 
1.139116835 1.2630228569 1.3852070904 0.71487100155 0.80816628637 0.80816628637 0.90937090954 0.90937090954 0.90937090954 
1.0172219679 1.0172219679 1.0172219679 1.0172219679 1.1296873865 1.1296873865 1.1296873865 1.1296873865 1.1296873865 
1.24411054 1.24411054 1.24411054 1.24411054 1.24411054 1.24411054 1.3575464161 1.3575464161 1.3575464161 
1.3575464161 1.3575464161 1.3575464161 1.3575464161 1.4671972081 1.4671972081 1.4671972081 1.4671972081 1.4671972081 
1.4671972081 1.4671972081 1.4671972081 1.6743954455 1.6743954455 1.7840462375 1.6743954455 1.7840462375 1.8974821136 
1.6743954455 1.7840462375 1.8974821136 2.0119052671 1.6743954455 1.7840462375 1.8974821136 2.0119052671 2.1243706857 
1.6743954455 1.7840462375 1.8974821136 2.0119052671 2.1243706857 2.232221744 1.6743954455 1.7840462375 1.8974821136 
2.0119052671 2.1243706857 2.232221744 2.3334263672 1.6743954455 1.7840462375 1.8974821136 2.0119052671 2.1243706857 
2.232221744 2.3334263672 2.426721652 1.7563855631 1.8785697967 1.8563003522 2.0024758186 1.9913306621 1.9779583789 
2.1243706857 2.1243706857 2.1243706857 2.1243706857 2.2408671392 2.2510113037 2.2630782103 2.2776669786 2.295651703 
2.3494282469 2.3680303173 2.3899057108 2.4159740166 2.4475202889 2.486385773 2.448570738 2.4736848652 2.5028148801 
2.5369440334 2.5773755784 2.6258554882 2.6847397011 2.5377803997 2.5675431237 2.6015718084 2.6407557529 2.6862098746 
2.7393287203 2.8018393335 2.8758309421 2.718901062 2.8307207459 2.7598010554 2.95115522 2.8800620952 2.8058000847 
3.0774230472 3.00855263 2.9351694502 2.8576792927 3.0774230472 3.1415926536 3.0719036933 2.9967168029 2.91630358 
2.95115522 3.00855263 3.0719036933 3.1415926536 3.0653475414 2.9825888767 2.8307207459 2.8800620952 2.9351694502 
2.9967168029 3.0653475414 3.1415926536 3.0574329311 2.718901062 2.7598010554 2.8058000847 2.8576792927 2.91630358 
2.9825888767 3.0574329311 3.1415926536 2.718901062 2.7598010554 2.8307207459 2.8058000847 2.8800620952 2.95115522 
2.8576792927 2.9351694502 3.00855263 3.0774230472 2.91630358 2.9967168029 3.0719036933 3.1415926536 3.0774230472 
2.9825888767 3.0653475414 3.1415926536 3.0719036933 3.00855263 2.95115522 3.0574329311 3.1415926536 3.0653475414 