# vtk DataFile Version 5.1
vtk output
ASCII
DATASET POLYDATA
POINTS 100 float
-4.36337 3.72034 0.97783 -4.37068 3.7136 0.974829 -4.39234 3.6913 0.969337 
-4.42801 3.65394 0.962154 -4.47708 3.60225 0.954416 -4.53868 3.53702 0.947363 
-4.61174 3.45891 0.942085 -4.69502 3.36833 0.939312 -4.78719 3.26535 0.939271 
-4.8869 3.14974 0.941662 -4.99291 3.02104 0.94573 -5.10418 2.87882 0.950443 
-5.21999 2.72284 0.954706 -5.33997 2.55323 0.957585 -5.46422 2.37065 0.958481 
-5.59323 2.17626 0.95722 -5.72783 1.97168 0.954043 -5.86916 1.75874 0.949495 
-6.0184 1.5393 0.94425 -6.17671 1.31495 0.938912 -6.345 1.08684 0.933832 
-6.52377 0.855525 0.928995 -6.71307 0.620982 0.923995 -6.91241 0.382686 0.918108 
-7.12079 0.139803 0.910444 -7.33687 -0.108592 0.900144 -7.55905 -0.363305 0.886578 
-7.7857 -0.624862 0.869491 -8.01534 -0.893448 0.849074 -8.24682 -1.16894 0.825935 
-8.47942 -1.45103 0.800975 -8.71288 -1.7394 0.775209 -8.94738 -2.03388 0.749551 
-9.18342 -2.33459 0.724637 -9.42168 -2.64202 0.700701 -9.66285 -2.95692 0.677549 
-9.90748 -3.28023 0.654624 -10.1559 -3.61282 0.631148 -10.408 -3.95535 0.606308 
-10.6635 -4.30806 0.57943 -10.9218 -4.6707 0.550106 -11.1824 -5.0426 0.518234 
-11.4446 -5.42278 0.48396 -11.7079 -5.81024 0.447531 -11.9718 -6.20418 0.409092 
-12.236 -6.60428 0.368471 -12.5002 -7.01084 0.325019 -12.7638 -7.42481 0.277528 
-13.0256 -7.84763 0.224281 -13.2843 -8.281 0.163215 -13.5373 -8.72653 0.0921941 
-13.7818 -9.18532 0.00933066 -14.014 -9.65768 -0.0866969 -14.23 -10.143 -0.19639 
-14.4258 -10.6395 -0.319295 -14.5979 -11.1447 -0.454003 -14.7437 -11.6557 -0.598309 
-14.8614 -12.1692 -0.749468 -14.9511 -12.6822 -0.904532 -15.0139 -13.1927 -1.06068 
-15.0523 -13.699 -1.21551 -15.0698 -14.2008 -1.36718 -15.0704 -14.698 -1.5145 
-15.058 -15.1914 -1.65682 -15.0361 -15.6816 -1.79386 -15.0073 -16.169 -1.92551 
-14.9732 -16.6533 -2.0516 -14.9341 -17.1338 -2.17176 -14.8895 -17.6089 -2.28538 
-14.8381 -18.0768 -2.39165 -14.7784 -18.5355 -2.4897 -14.709 -18.9833 -2.57882 
-14.6292 -19.419 -2.65867 -14.5391 -19.8422 -2.72938 -14.4397 -20.2532 -2.79167 
-14.3333 -20.6526 -2.84676 -14.2225 -21.0412 -2.89624 -14.1108 -21.4195 -2.94177 
-14.0014 -21.7875 -2.9849 -13.8976 -22.1442 -3.02673 -13.802 -22.4875 -3.06785 
-13.7166 -22.8146 -3.10819 -13.6425 -23.1226 -3.1472 -13.5803 -23.4083 -3.18396 
-13.53 -23.6694 -3.21749 -13.4915 -23.905 -3.24699 -13.4642 -24.1154 -3.27208 
-13.4477 -24.3025 -3.29293 -13.4416 -24.4697 -3.31025 -13.4453 -24.6207 -3.32514 
-13.4582 -24.7598 -3.33892 -13.4792 -24.8902 -3.35278 -13.5068 -25.0139 -3.36753 
-13.5392 -25.1312 -3.38345 -13.5737 -25.2407 -3.40012 -13.6077 -25.3392 -3.41653 
-13.6381 -25.4226 -3.43126 -13.6623 -25.4863 -3.44273 -13.6778 -25.5264 -3.44953 
-13.6833 -25.5402 -3.45073 
LINES 2 100
OFFSETS vtktypeint64
0 100 
CONNECTIVITY vtktypeint64
0 1 2 3 4 5 6 7 8 
9 10 11 12 13 14 15 16 17 
18 19 20 21 22 23 24 25 26 
27 28 29 30 31 32 33 34 35 
36 37 38 39 40 41 42 43 44 
45 46 47 48 49 50 51 52 53 
54 55 56 57 58 59 60 61 62 
63 64 65 66 67 68 69 70 71 
72 73 74 75 76 77 78 79 80 
81 82 83 84 85 86 87 88 89 
90 91 92 93 94 95 96 97 98 
99 
POINT_DATA 100
FIELD FieldData 3
_theta 1 100 double
0 0.031733259127 0.063466518254 0.095199777382 0.12693303651 0.15866629564 0.19039955476 0.22213281389 0.25386607302 
0.28559933214 0.31733259127 0.3490658504 0.38079910953 0.41253236865 0.44426562778 0.47599888691 0.50773214603 0.53946540516 
0.57119866429 0.60293192342 0.63466518254 0.66639844167 0.6981317008 0.72986495992 0.76159821905 0.79333147818 0.82506473731 
0.85679799643 0.88853125556 0.92026451469 0.95199777382 0.98373103294 1.0154642921 1.0471975512 1.0789308103 1.1106640695 
1.1423973286 1.1741305877 1.2058638468 1.237597106 1.2693303651 1.3010636242 1.3327968833 1.3645301425 1.3962634016 
1.4279966607 1.4597299198 1.491463179 1.5231964381 1.5549296972 1.5866629564 1.6183962155 1.6501294746 1.6818627337 
1.7135959929 1.745329252 1.7770625111 1.8087957702 1.8405290294 1.8722622885 1.9039955476 1.9357288068 1.9674620659 
1.999195325 2.0309285841 2.0626618433 2.0943951024 2.1261283615 2.1578616206 2.1895948798 2.2213281389 2.253061398 
2.2847946572 2.3165279163 2.3482611754 2.3799944345 2.4117276937 2.4434609528 2.4751942119 2.506927471 2.5386607302 
2.5703939893 2.6021272484 2.6338605076 2.6655937667 2.6973270258 2.7290602849 2.7607935441 2.7925268032 2.8242600623 
2.8559933214 2.8877265806 2.9194598397 2.9511930988 2.982926358 3.0146596171 3.0463928762 3.0781261353 3.1098593945 
3.1415926536 
_radius 1 100 double
6.5201385891e-15 0.28547529849 0.5690144527 0.84875653368 1.1231815503 1.3911797827 1.6520162978 1.9052034162 2.1503292646 
2.3869104007 2.61432342 2.8318281687 3.0386521681 3.2340903682 3.417588669 3.5888032298 3.7476398133 3.8942735811 
4.0291399071 4.1528839373 4.2662660402 4.3700371137 4.4648121034 4.5509740638 4.6286329086 4.6976475249 4.7577050632 
4.8084423257 4.849590553 4.8811217902 4.9033694873 4.9170910398 4.9234425613 4.9238510112 4.9197936227 4.9125210507 
4.9027792488 4.8905901949 4.8751435624 4.8548347421 4.827463702 4.7905855034 4.7419762162 4.6801483725 4.6048233248 
4.5172530368 4.4202910466 4.3181511935 4.2158710018 4.1186073811 4.0309852901 3.9567055221 3.8984594937 3.858000862 
3.8361528649 3.8326513502 3.8459336654 3.8730977324 3.9101859335 3.9527723244 3.9966743662 4.0385569712 4.0762646514 
4.108843836 4.1363193163 4.1593317587 4.178740444 4.1952744537 4.2092930669 4.2206913401 4.2289532462 4.2333163303 
4.2329830826 4.227306033 4.2158855972 4.1985460183 4.1751898145 4.1455681296 4.1090321273 4.0643377242 4.0095599497 
3.9421438877 3.8590909484 3.7572596032 3.633746219 3.4862988999 3.3137046911 3.1160833076 2.8950254018 2.6535337535 
2.3957597659 2.1265682158 1.8509995862 1.5737198815 1.2985449811 1.0281028457 0.76366507579 0.50515314394 0.25130804853 
3.6172616622e-14 
_area 1 100 double
0 0.22350013508 0.88790885877 1.9754507413 3.4581289963 5.2999833569 7.4597628747 9.8935046719 12.556693582 
15.406090495 18.401481566 21.507210508 24.692815187 27.932151191 31.201246262 34.476077426 37.731543681 40.941959933 
44.082277431 47.128914731 50.05969264 52.853225123 55.488514697 57.945273683 60.204929747 62.251729442 64.073139994 
65.659197164 67.001575906 68.0941439 68.936338093 69.538711146 69.927920874 70.147913396 70.255287459 70.308813256 
70.354754195 70.410823372 70.452990276 70.410908769 70.177240283 69.631446818 68.671807883 67.245711988 65.370008928 
63.137121831 60.703631685 58.255775059 55.954215356 53.893824534 52.115629677 50.639898003 49.478314821 48.633160441 
48.101140161 47.874285292 47.927383606 48.200761172 48.602379636 49.041523776 49.464754788 49.847455101 50.154173481 
50.338930905 50.383548627 50.31828774 50.20879713 50.119970873 50.077043254 50.049921252 49.970462716 49.765292456 
49.382206469 48.801433127 48.033862318 47.111675098 46.07589747 44.963804378 43.797851246 42.577274774 41.273967529 
39.834572484 38.18966546 36.268749988 34.017776155 31.414846249 28.480058184 25.276954543 21.905293734 18.487160049 
15.150038193 12.010850401 9.1640806751 6.6755554957 4.5819457288 2.8949829041 1.6087268766 0.70794609154 0.17585185293 
1.4210854715e-14 
