# vtk DataFile Version 5.1
vtk output
ASCII
DATASET POLYDATA
POINTS 1002 float
-11.8014 -0.67868 -2.59435 -23.6367 -13.0731 -4.92414 -11.238 -3.45912 3.52826 
-22.2471 -14.1349 0.251386 -15.2036 -7.52767 -3.18457 -14.3439 -8.49136 0.0754142 
-21.2928 -3.26535 -1.05005 -21.5854 -4.80458 2.88415 -19.7248 -24.0996 -4.74563 
-2.72042 -3.42099 -0.000289753 -27.7182 -16.5263 -2.29708 -11.2223 3.10942 2.14803 
-12.7957 -1.2511 -2.7136 -13.9805 -1.94613 -2.84006 -15.3342 -2.76747 -2.98212 
-16.8454 -3.84473 -3.11609 -18.4611 -5.2559 -3.29067 -20.0066 -6.86992 -3.58731 
-21.336 -8.56471 -3.96095 -22.4077 -10.2501 -4.33566 -23.177 -11.7729 -4.67518 
-11.6051 -1.09647 -2.81028 -11.4457 -1.64695 -2.97501 -11.3599 -2.26427 -3.15071 
-11.4218 -2.90124 -3.38997 -11.7403 -3.65145 -3.5755 -12.3032 -4.55068 -3.60529 
-12.9307 -5.4391 -3.56159 -13.5677 -6.19501 -3.4934 -14.3259 -6.86088 -3.35931 
-12.6104 -0.673656 -2.41356 -13.5345 -0.718967 -2.23171 -14.5807 -0.776466 -2.0896 
-15.6658 -0.885622 -1.93931 -16.7179 -1.10996 -1.74356 -17.7584 -1.44158 -1.56228 
-18.7786 -1.85847 -1.42282 -19.72 -2.33639 -1.29017 -20.5571 -2.81717 -1.1602 
-10.7185 -0.440451 -2.59535 -9.51325 -0.299382 -2.54592 -8.19347 -0.23937 -2.44001 
-6.82358 -0.300796 -2.2801 -5.47346 -0.588977 -2.08906 -4.24777 -1.0829 -1.8603 
-3.33194 -1.64975 -1.50943 -2.81971 -2.23847 -1.00929 -2.64318 -2.84577 -0.468282 
-11.3956 -0.150442 -2.34133 -11.0356 0.404687 -2.04629 -10.7365 1.00358 -1.73055 
-10.5522 1.58139 -1.35344 -10.4789 2.08582 -0.867837 -10.4677 2.53708 -0.335451 
-10.5644 2.90918 0.20344 -10.7847 3.13435 0.824982 -11.0244 3.19371 1.52003 
-23.2142 -13.0921 -4.9783 -22.6767 -13.0111 -4.98576 -22.0064 -12.8089 -4.94141 
-21.2953 -12.4729 -4.79231 -20.614 -11.9933 -4.54255 -19.8296 -11.3246 -4.25752 
-18.8348 -10.3812 -3.92287 -17.7009 -9.23641 -3.55508 -16.4796 -8.1991 -3.28871 
-23.7743 -12.1968 -4.6796 -23.7989 -11.1702 -4.34666 -23.6811 -10.0348 -3.96848 
-23.468 -8.88269 -3.58323 -23.2211 -7.77336 -3.16703 -22.9076 -6.71268 -2.71195 
-22.5063 -5.7046 -2.2684 -22.0823 -4.77553 -1.85756 -21.6793 -3.95864 -1.45496 
-23.6391 -14.3984 -5.12414 -23.4701 -15.9295 -5.24382 -23.1996 -17.6229 -5.39142 
-22.9036 -19.2356 -5.6734 -22.5511 -20.5924 -5.97026 -22.0396 -21.8031 -6.14214 
-21.3495 -22.9248 -6.18608 -20.6014 -23.7505 -5.99026 -20.0056 -24.1206 -5.45522 
-24.0676 -13.8044 -4.94368 -24.5179 -14.6135 -4.89888 -25.0012 -15.467 -4.83076 
-25.4903 -16.177 -4.69533 -25.9811 -16.6105 -4.44483 -26.4647 -16.8357 -4.1489 
-26.9302 -16.944 -3.82293 -27.3541 -16.9374 -3.38277 -27.6397 -16.7942 -2.84017 
-12.2655 -3.99731 3.50611 -13.4019 -4.69525 3.51395 -14.6499 -5.53303 3.46772 
-16.0197 -6.41149 3.17438 -17.4656 -7.36873 2.65722 -18.8461 -8.53343 2.08856 
-20.0245 -9.88737 1.50251 -20.9677 -11.3277 0.952403 -21.6986 -12.7728 0.542835 
-11.1592 -3.95777 3.31523 -11.167 -4.49894 3.06279 -11.2955 -5.06597 2.78081 
-11.4653 -5.65099 2.45526 -11.6836 -6.24201 2.08131 -12.0659 -6.81819 1.70169 
-12.5755 -7.36064 1.32454 -13.1159 -7.82875 0.918506 -13.7021 -8.19081 0.492499 
-11.9476 -3.31465 3.71876 -12.6756 -3.24966 3.95011 -13.5186 -3.24545 4.17482 
-14.6601 -3.27786 4.24147 -16.0801 -3.40608 4.11213 -17.5504 -3.65913 3.94847 
-18.8806 -3.94934 3.80691 -19.9824 -4.22206 3.57881 -20.8603 -4.50258 3.24359 
-10.1711 -3.28501 3.39858 -9.08702 -3.11201 3.16108 -8.04693 -2.94929 2.81875 
-6.97284 -2.86995 2.46036 -5.84892 -2.87943 2.12823 -4.85967 -2.92566 1.78548 
-4.05665 -3.01943 1.41017 -3.36713 -3.17336 0.995255 -2.88573 -3.32964 0.521581 
-10.6758 -2.81702 3.63868 -10.1159 -2.0475 3.67467 -9.66509 -1.17127 3.64303 
-9.40751 -0.281748 3.586 -9.34438 0.560114 3.4633 -9.46815 1.35929 3.25882 
-9.77932 2.08078 3.06882 -10.2312 2.63491 2.88204 -10.7396 2.97048 2.5787 
-21.7858 -13.9183 0.189146 -21.2497 -13.573 0.143467 -20.6332 -13.0738 0.105935 
-19.9597 -12.411 0.0642005 -19.1959 -11.6548 0.0656413 -18.2919 -10.8887 0.149465 
-17.2986 -10.126 0.244143 -16.2869 -9.41299 0.264624 -15.2882 -8.85341 0.200567 
-22.3877 -13.437 0.494347 -22.5083 -12.6336 0.776159 -22.5991 -11.7634 1.09303 
-22.6713 -10.848 1.42635 -22.7055 -9.86015 1.76928 -22.6532 -8.81877 2.09566 
-22.5147 -7.79038 2.35451 -22.2986 -6.78016 2.54844 -21.9834 -5.77296 2.72338 
-22.4245 -15.3929 -0.0923498 -22.5515 -16.7564 -0.537763 -22.5742 -18.2052 -1.00628 
-22.3973 -19.6985 -1.39815 -22.0712 -21.1352 -1.82438 -21.7107 -22.3959 -2.36881 
-21.218 -23.3808 -2.89571 -20.5573 -24.0064 -3.41265 -19.9886 -24.2336 -4.05338 
-22.8208 -15.0212 0.121906 -23.4379 -15.8382 -0.0364915 -24.1031 -16.5242 -0.224137 
-24.8085 -17.0414 -0.407953 -25.5647 -17.3473 -0.57566 -26.3245 -17.4278 -0.790797 
-26.9435 -17.3495 -1.11482 -27.3505 -17.1771 -1.51351 -27.5949 -16.9046 -1.91815 
-14.9523 -7.67674 -3.04432 -14.6536 -7.84641 -2.88218 -14.3595 -8.01771 -2.68558 
-14.1572 -8.18978 -2.42083 -14.0287 -8.36059 -2.06752 -13.939 -8.48657 -1.65253 
-13.9448 -8.54079 -1.19932 -14.0532 -8.54206 -0.729358 -14.1964 -8.51672 -0.295084 
-16.9139 -8.86359 -3.13844 -18.3507 -10.9292 -3.39505 -19.0651 -13.3295 -3.93702 
-19.1666 -15.5047 -4.47236 -19.2182 -17.3777 -4.7497 -19.4408 -19.1363 -4.84905 
-19.6029 -20.7381 -4.96729 -19.5895 -22.1164 -5.0761 -19.5636 -23.2699 -5.01448 
-13.2994 -6.90278 -3.28887 -11.46 -6.59681 -3.3053 -9.8797 -6.16425 -3.04495 
-8.4134 -5.64261 -2.63559 -6.8987 -5.40502 -2.29565 -5.51232 -5.2832 -1.97375 
-4.44717 -4.95083 -1.54212 -3.63988 -4.49434 -1.01953 -3.04029 -3.99909 -0.483805 
-15.6502 -9.14976 -0.300298 -17.0748 -10.4453 -0.783566 -18.3866 -12.5381 -1.31831 
-19.2324 -14.9968 -1.85142 -19.4939 -17.2348 -2.3718 -19.5226 -19.1674 -2.87108 
-19.6067 -20.8825 -3.33316 -19.6361 -22.298 -3.77658 -19.5935 -23.3692 -4.24745 
-12.989 -8.1166 0.143528 -11.5824 -7.82202 0.174696 -10.1644 -7.49667 0.21782 
-8.72892 -7.14586 0.269422 -7.29664 -6.81059 0.319132 -5.97292 -6.4305 0.350726 
-4.83488 -5.91082 0.315795 -3.88251 -5.20861 0.224691 -3.15633 -4.34687 0.12218 
-21.4751 -3.13031 -0.716035 -21.6366 -2.98994 -0.319481 -21.7892 -2.89998 0.171891 
-21.9259 -2.9463 0.750484 -21.9815 -3.14974 1.30959 -21.9267 -3.41699 1.75602 
-21.8363 -3.68809 2.12874 -21.7733 -4.01118 2.4658 -21.7073 -4.40313 2.72278 
-22.2665 -4.17866 -1.21124 -23.3278 -5.23546 -1.39692 -24.3994 -6.32491 -1.62628 
-25.4023 -7.5419 -1.9336 -26.3518 -9.24215 -2.30229 -27.1895 -11.297 -2.58434 
-27.7002 -13.0498 -2.63295 -27.8383 -14.3319 -2.51188 -27.7967 -15.4589 -2.38164 
-20.4431 -2.35437 -0.688668 -19.5078 -1.39502 -0.322016 -18.4889 -0.368281 0.000179651 
-17.3947 0.600589 0.303833 -16.2824 1.40227 0.647274 -15.2185 2.08498 1.01685 
-14.1928 2.60982 1.36399 -13.1712 2.89601 1.66742 -12.1693 3.03126 1.92786 
-22.6006 -5.75824 2.44604 -23.758 -6.83407 2.0149 -24.9095 -8.00543 1.54549 
-25.9021 -9.26894 1.00881 -26.699 -10.6253 0.429178 -27.2456 -11.994 -0.185442 
-27.5081 -13.2501 -0.79115 -27.6211 -14.4023 -1.32836 -27.7021 -15.5125 -1.81813 
-20.711 -3.6401 3.2496 -19.7381 -2.40655 3.5628 -18.6111 -1.14059 3.75232 
-17.3513 0.0703409 3.84129 -16.1119 1.09067 3.81986 -14.9976 1.83186 3.6058 
-13.959 2.31671 3.25872 -12.9543 2.64508 2.90899 -12.0285 2.90325 2.55413 
-20.3139 -24.6252 -4.78879 -21.3873 -24.5544 -4.70204 -22.7372 -23.9051 -4.44716 
-24.0276 -23.0858 -4.07121 -25.0761 -22.2088 -3.68823 -25.9173 -21.057 -3.35642 
-26.6527 -19.8309 -3.07603 -27.242 -18.7725 -2.8235 -27.5823 -17.7057 -2.56081 
-2.59272 -2.39768 0.16936 -2.80434 -1.33585 0.306953 -3.29576 -0.383674 0.434607 
-3.97796 0.505532 0.579112 -4.93352 1.41189 0.780469 -6.2283 2.22543 1.08795 
-7.65388 2.82675 1.45166 -8.97377 3.16099 1.75828 -10.1503 3.21797 1.98076 
-12.7124 -1.74185 -2.93046 -12.6479 -2.33988 -3.09865 -14.0217 -2.49553 -3.05849 
-12.6614 -2.96703 -3.29074 -14.0831 -3.10291 -3.23 -15.5507 -3.39951 -3.18922 
-12.9253 -3.6561 -3.51314 -14.2744 -3.77995 -3.38984 -15.8627 -4.12271 -3.35428 
-17.3012 -4.66281 -3.3359 -13.5288 -4.5022 -3.62692 -14.7769 -4.64693 -3.50732 
-16.3334 -5.07538 -3.46185 -17.8898 -5.70006 -3.54034 -19.0679 -6.3255 -3.57985 
-14.2703 -5.43983 -3.59804 -15.5507 -5.70081 -3.54537 -16.9911 -6.29059 -3.52499 
-18.5056 -7.04538 -3.68245 -19.6979 -7.6859 -3.856 -20.5692 -8.1641 -3.91755 
-14.9602 -6.36385 -3.5168 -16.3391 -6.84539 -3.55918 -17.7226 -7.62073 -3.63101 
-19.0705 -8.5034 -3.82837 -20.1812 -9.21284 -4.09096 -21.0292 -9.66238 -4.23457 
-21.758 -9.98731 -4.28726 -15.6779 -7.27591 -3.40891 -17.0421 -8.04598 -3.56802 
-18.3603 -9.00807 -3.79046 -19.537 -9.92616 -4.04286 -20.4799 -10.6492 -4.32842 
-21.2701 -11.1322 -4.54251 -22.0049 -11.4433 -4.62944 -22.6534 -11.6569 -4.66679 
-10.4173 -0.911581 -2.79492 -9.12107 -0.833246 -2.72719 -10.1924 -1.50055 -2.96616 
-7.73652 -0.873527 -2.59346 -8.83158 -1.46434 -2.91809 -10.0687 -2.13573 -3.18126 
-6.31955 -1.0958 -2.4034 -7.38468 -1.63884 -2.77241 -8.60426 -2.16375 -3.12322 
-10.077 -2.84425 -3.38508 -4.97853 -1.53278 -2.18938 -5.98316 -2.06435 -2.53942 
-7.13006 -2.51544 -2.9232 -8.53514 -3.00627 -3.21528 -10.3567 -3.75446 -3.4472 
-3.91479 -2.10175 -1.90859 -4.81928 -2.62708 -2.26578 -5.95672 -3.11566 -2.65101 
-7.25014 -3.48411 -2.96682 -8.91115 -4.04206 -3.21143 -10.9314 -4.78969 -3.44913 
-3.28461 -2.72949 -1.48952 -4.05356 -3.234 -1.92114 -5.15144 -3.75435 -2.33791 
-6.47283 -4.11067 -2.69807 -7.94963 -4.47646 -2.98303 -9.6854 -5.10038 -3.27877 
-11.6275 -5.69619 -3.48762 -3.03509 -3.3843 -0.979458 -3.70232 -3.87558 -1.48954 
-4.6531 -4.37204 -1.96268 -5.92835 -4.72444 -2.35855 -7.40393 -4.94076 -2.67965 
-8.9255 -5.38675 -3.03323 -10.5605 -5.96861 -3.36157 -12.399 -6.37131 -3.45535 
-3.62053 -4.92497 -0.391896 -4.46597 -5.74541 -0.298616 -4.35031 -5.3993 -0.966643 
-5.53889 -6.37405 -0.210911 -5.30364 -6.12827 -0.897244 -5.26132 -5.75461 -1.50651 
-6.8127 -6.82378 -0.184302 -6.49671 -6.63627 -0.840013 -6.33463 -6.30824 -1.45968 
-6.46569 -5.87762 -1.9103 -8.22395 -7.21133 -0.204316 -7.86381 -7.10559 -0.816572 
[...]
POINT_DATA 1002
FIELD FieldData 4
_paraPhi 1 1002 double
6.2831853072 3.1415926536 6.2831853072 3.1415926536 4.7123889804 4.7123889804 1.5707963268 1.5707963268 3.6951670125 
5.7296109483 2.5880182947 0.5535743589 6.2831853072 6.2831853072 6.2831853072 6.2831853072 3.1415926536 3.1415926536 
3.1415926536 3.1415926536 3.1415926536 6.1053039672 5.898798347 5.6768734901 5.4599499503 5.2659633393 5.1032165617 
4.9713148346 4.8656852733 4.7809517865 0.17788134 0.38438696014 0.60631181711 0.82323535693 1.0172219679 1.1799687454 
1.3118704726 1.4175000338 1.5022335207 6.1892828907 6.1070320098 6.035312792 5.9728339911 5.9183214791 5.8706119594 
5.8286879411 5.7916808611 5.7588591896 0.093902416448 0.17615329733 0.2478725152 0.31035131605 0.36486382811 0.41257334776 
0.45449736604 0.4915044461 0.52432611754 3.3194739936 3.5259796137 3.7479044707 3.9648280105 4.1588146215 4.321561399 
4.4534631262 4.5590926874 4.6438261743 2.9637113136 2.7572056934 2.5352808365 2.3183572967 2.1243706857 1.9616239082 
1.829722181 1.7240926197 1.6393591329 3.23549507 3.3177459509 3.3894651688 3.4519439696 3.5064564817 3.5541660013 
3.5960900196 3.6330970997 3.6659187711 3.0476902371 2.9654393563 2.8937201384 2.8312413375 2.7767288255 2.7290193058 
2.6870952876 2.6500882075 2.617266536 6.2831853072 6.2831853072 6.2831853072 6.2831853072 3.1415926536 3.1415926536 
3.1415926536 3.1415926536 3.1415926536 6.1053039672 5.898798347 5.6768734901 5.4599499503 5.2659633393 5.1032165617 
4.9713148346 4.8656852733 4.7809517865 0.17788134 0.38438696014 0.60631181711 0.82323535693 1.0172219679 1.1799687454 
1.3118704726 1.4175000338 1.5022335207 6.1892828907 6.1070320098 6.035312792 5.9728339911 5.9183214791 5.8706119594 
5.8286879411 5.7916808611 5.7588591896 0.093902416448 0.17615329733 0.2478725152 0.31035131605 0.36486382811 0.41257334776 
0.45449736604 0.4915044461 0.52432611754 3.3194739936 3.5259796137 3.7479044707 3.9648280105 4.1588146215 4.321561399 
4.4534631262 4.5590926874 4.6438261743 2.9637113136 2.7572056934 2.5352808365 2.3183572967 2.1243706857 1.9616239082 
1.829722181 1.7240926197 1.6393591329 3.23549507 3.3177459509 3.3894651688 3.4519439696 3.5064564817 3.5541660013 
3.5960900196 3.6330970997 3.6659187711 3.0476902371 2.9654393563 2.8937201384 2.8312413375 2.7767288255 2.7290193058 
2.6870952876 2.6500882075 2.617266536 4.7123889804 4.7123889804 4.7123889804 4.7123889804 4.7123889804 4.7123889804 
4.7123889804 4.7123889804 4.7123889804 4.6087898617 4.4991390697 4.3857031936 4.2712800401 4.1588146215 4.0509635631 
3.94975894 3.8564636551 3.7716124825 4.8159880991 4.9256388911 5.0390747672 5.1534979207 5.2659633393 5.3738143976 
5.4750190208 5.5683143056 5.6531654782 4.6087898617 4.4991390697 4.3857031936 4.2712800401 4.1588146215 4.0509635631 
3.94975894 3.8564636551 3.7716124825 4.8159880991 4.9256388911 5.0390747672 5.1534979207 5.2659633393 5.3738143976 
5.4750190208 5.5683143056 5.6531654782 1.5707963268 1.5707963268 1.5707963268 1.5707963268 1.5707963268 1.5707963268 
1.5707963268 1.5707963268 1.5707963268 1.6743954455 1.7840462375 1.8974821136 2.0119052671 2.1243706857 2.232221744 
2.3334263672 2.426721652 2.5115728246 1.4671972081 1.3575464161 1.24411054 1.1296873865 1.0172219679 0.90937090954 
0.80816628637 0.71487100155 0.63001982895 1.6743954455 1.7840462375 1.8974821136 2.0119052671 2.1243706857 2.232221744 
2.3334263672 2.426721652 2.5115728246 1.4671972081 1.3575464161 1.24411054 1.1296873865 1.0172219679 0.90937090954 
0.80816628637 0.71487100155 0.63001982895 3.6007720849 3.4966939854 3.3839471039 3.2645756454 3.1415926536 3.0186096618 
2.8992382033 2.7864913217 2.6824132222 5.8240058758 5.9280839753 6.0408308569 6.1602023154 6.2831853072 0.12298299178 
0.2423544503 0.35510133185 0.45917943135 6.0560271438 5.7885595667 5.9702140275 5.5125918794 5.6029703303 5.7885595667 
5.2659633393 5.2659633393 5.2659633393 5.2659633393 5.0674903122 5.0120975802 4.9155579264 4.7123889804 4.1588146215 
4.9155579264 4.8353719722 4.7123889804 4.5092200343 4.1588146215 3.6362183941 4.8004512023 4.7123889804 4.5894059886 
4.4126803806 4.1588146215 3.8218076305 3.4545639333 4.7123889804 4.6243267584 4.5092200343 4.3572876485 4.1588146215 
3.9121860814 3.6362183941 3.368750817 6.0174235957 5.9434319871 5.8263323547 5.8809213739 5.7674481418 5.6279784266 
5.8278025282 5.718968232 5.5891129425 5.4372443565 5.7823484065 5.678536687 5.5575666702 5.4192596322 5.2659633393 
5.743164462 5.6444075337 5.5314983644 5.4046708639 5.2659633393 5.1195510325 5.7091357773 5.6152775188 5.5096229709 
5.3926039573 5.2659633393 5.1329233157 4.9978930058 5.6793730533 5.5901633916 5.4910209005 5.3824597928 5.2659633393 
5.1440684722 5.0201624502 4.8979782167 5.5683143056 5.4750190208 5.4750190208 5.3738143976 5.3738143976 5.3738143976 
5.2659633393 5.2659633393 5.2659633393 5.2659633393 5.1534979207 5.1534979207 5.1534979207 5.1534979207 5.1534979207 
5.0390747672 5.0390747672 5.0390747672 5.0390747672 5.0390747672 5.0390747672 4.9256388911 4.9256388911 4.9256388911 
4.9256388911 4.9256388911 4.9256388911 4.9256388911 4.8159880991 4.8159880991 4.8159880991 4.8159880991 4.8159880991 
4.8159880991 4.8159880991 4.8159880991 4.6087898617 4.6087898617 4.4991390697 4.6087898617 4.4991390697 4.3857031936 
4.6087898617 4.4991390697 4.3857031936 4.2712800401 4.6087898617 4.4991390697 4.3857031936 4.2712800401 4.1588146215 
4.6087898617 4.4991390697 4.3857031936 4.2712800401 4.1588146215 4.0509635631 4.6087898617 4.4991390697 4.3857031936 
4.2712800401 4.1588146215 4.0509635631 3.94975894 4.6087898617 4.4991390697 4.3857031936 4.2712800401 4.1588146215 
4.0509635631 3.94975894 3.8564636551 4.526799744 4.4046155105 4.426884955 4.2807094886 4.2918546451 4.3052269283 
4.1588146215 4.1588146215 4.1588146215 4.1588146215 4.042318168 4.0321740035 4.0201070968 4.0055183285 3.9875336042 
3.9337570603 3.9151549899 3.8932795963 3.8672112905 3.8356650183 3.7967995342 3.8346145692 3.809500442 3.7803704271 
3.7462412737 3.7058097288 3.657329819 3.5984456061 3.7454049075 3.7156421835 3.6816134988 3.6424295543 3.5969754326 
3.5438565869 3.4813459737 3.4073543651 3.5642842451 3.4524645613 3.5233842518 3.3320300872 3.403123212 3.4773852225 
3.20576226 3.2746326772 3.348015857 3.4255060145 3.0774230472 3.1415926536 3.2112816139 3.2864685043 3.3668817272 
2.95115522 3.00855263 3.0719036933 3.1415926536 3.2178377658 3.3005964304 2.8307207459 2.8800620952 2.9351694502 
2.9967168029 3.0653475414 3.1415926536 3.225752376 2.718901062 2.7598010554 2.8058000847 2.8576792927 2.91630358 
2.9825888767 3.0574329311 3.1415926536 3.5642842451 3.5233842518 3.4524645613 3.4773852225 3.403123212 3.3320300872 
3.4255060145 3.348015857 3.2746326772 3.20576226 3.3668817272 3.2864685043 3.2112816139 3.1415926536 3.0774230472 
3.3005964304 3.2178377658 3.1415926536 3.0719036933 3.00855263 2.95115522 3.225752376 3.1415926536 3.0653475414 
2.9967168029 2.9351694502 2.8800620952 2.8307207459 3.1415926536 3.0574329311 2.9825888767 2.91630358 2.8576792927 
2.8058000847 2.7598010554 2.718901062 4.526799744 4.426884955 4.4046155105 4.3052269283 4.2918546451 4.2807094886 
4.1588146215 4.1588146215 4.1588146215 4.1588146215 3.9875336042 4.0055183285 4.0201070968 4.0321740035 4.042318168 
3.7967995342 3.8356650183 3.8672112905 3.8932795963 3.9151549899 3.9337570603 3.5984456061 3.657329819 3.7058097288 
3.7462412737 3.7803704271 3.809500442 3.8346145692 3.4073543651 3.4813459737 3.5438565869 3.5969754326 3.6424295543 
3.6816134988 3.7156421835 3.7454049075 4.7123889804 4.8004512023 4.6243267584 4.9155579264 4.7123889804 4.5092200343 
5.0674903122 4.8353719722 4.5894059886 4.3572876485 5.2659633393 5.0120975802 4.7123889804 4.4126803806 4.1588146215 
5.5125918794 5.2659633393 4.9155579264 4.5092200343 4.1588146215 3.9121860814 5.7885595667 5.6029703303 5.2659633393 
4.7123889804 4.1588146215 3.8218076305 3.6362183941 6.0560271438 5.9702140275 5.7885595667 5.2659633393 4.1588146215 
3.6362183941 3.4545639333 3.368750817 0.22715816343 0.49462574053 0.3129712797 0.77059342779 0.68021497688 0.49462574053 
1.0172219679 1.0172219679 1.0172219679 1.0172219679 1.2156949949 1.271087727 1.3676273807 1.5707963268 2.1243706857 
1.3676273807 1.447813335 1.5707963268 1.7739652728 2.1243706857 2.6469669131 1.4827341049 1.5707963268 1.6937793186 
1.8705049266 2.1243706857 2.4613776767 2.8286213739 1.5707963268 1.6588585487 1.7739652728 1.9258976586 2.1243706857 
2.3709992258 2.6469669131 2.9144344902 1.7563855631 1.8785697967 1.8563003522 2.0024758186 1.9913306621 1.9779583789 
2.1243706857 2.1243706857 2.1243706857 2.1243706857 2.2408671392 2.2510113037 2.2630782103 2.2776669786 2.295651703 
2.3494282469 2.3680303173 2.3899057108 2.4159740166 2.4475202889 2.486385773 2.448570738 2.4736848652 2.5028148801 
2.5369440334 2.5773755784 2.6258554882 2.6847397011 2.5377803997 2.5675431237 2.6015718084 2.6407557529 2.6862098746 
2.7393287203 2.8018393335 2.8758309421 1.6743954455 1.6743954455 1.7840462375 1.6743954455 1.7840462375 1.8974821136 
1.6743954455 1.7840462375 1.8974821136 2.0119052671 1.6743954455 1.7840462375 1.8974821136 2.0119052671 2.1243706857 
1.6743954455 1.7840462375 1.8974821136 2.0119052671 2.1243706857 2.232221744 1.6743954455 1.7840462375 1.8974821136 
2.0119052671 2.1243706857 2.232221744 2.3334263672 1.6743954455 1.7840462375 1.8974821136 2.0119052671 2.1243706857 
2.232221744 2.3334263672 2.426721652 1.4671972081 1.3575464161 1.4671972081 1.24411054 1.3575464161 1.4671972081 
1.1296873865 1.24411054 1.3575464161 1.4671972081 1.0172219679 1.1296873865 1.24411054 1.3575464161 1.4671972081 
0.90937090954 1.0172219679 1.1296873865 1.24411054 1.3575464161 1.4671972081 0.80816628637 0.90937090954 1.0172219679 
1.1296873865 1.24411054 1.3575464161 1.4671972081 0.71487100155 0.80816628637 0.90937090954 1.0172219679 1.1296873865 
1.24411054 1.3575464161 1.4671972081 0.60381225391 0.57404952988 0.69302191562 0.54002084522 0.66790778838 0.79216440667 
0.50083690068 0.63877777351 0.77356233629 0.90072551443 0.45538277901 0.60464862014 0.75168694275 0.89058134991 1.0172219679 
0.40226393329 0.56421707518 0.72561863695 0.87851444325 1.0172219679 1.139116835 0.33975332011 0.51573716537 0.69407236469 
0.86392567495 1.0172219679 1.1502619915 1.2630228569 0.26576171152 0.45685295248 0.6552068806 0.84594095064 1.0172219679 
1.1636342747 1.2852923014 1.3852070904 0.22715816343 0.3129712797 0.49462574053 0.49462574053 0.68021497688 0.77059342779 
1.0172219679 1.0172219679 1.0172219679 1.0172219679 2.1243706857 1.5707963268 1.3676273807 1.271087727 1.2156949949 
2.6469669131 2.1243706857 1.7739652728 1.5707963268 1.447813335 1.3676273807 2.8286213739 2.4613776767 2.1243706857 
1.8705049266 1.6937793186 1.5707963268 1.4827341049 2.9144344902 2.6469669131 2.3709992258 2.1243706857 1.9258976586 
1.7739652728 1.6588585487 1.5707963268 1.7563855631 1.8563003522 1.8785697967 1.9779583789 1.9913306621 2.0024758186 
2.1243706857 2.1243706857 2.1243706857 2.1243706857 2.295651703 2.2776669786 2.2630782103 2.2510113037 2.2408671392 
2.486385773 2.4475202889 2.4159740166 2.3899057108 2.3680303173 2.3494282469 2.6847397011 2.6258554882 2.5773755784 
2.5369440334 2.5028148801 2.4736848652 2.448570738 2.8758309421 2.8018393335 2.7393287203 2.6862098746 2.6407557529 
2.6015718084 2.5675431237 2.5377803997 5.8604937156 5.901393709 5.9723133995 5.9473927383 6.0216547488 6.0927478736 
5.9992719463 6.0767621038 6.1501452836 6.2190157008 6.0578962336 6.1383094565 6.2134963469 0 0.064169606361 
6.1241815303 6.206940195 6.2831853072 0.069688960264 0.13304002361 0.19043743361 6.1990255847 0 0.07624511221 
0.14487585072 0.20642320337 0.26153055843 0.3108719077 0 0.084159722458 0.15900377685 0.22528907359 0.28391336087 
0.3357925689 0.38179159818 0.42269159155 5.8604937156 5.9723133995 5.901393709 6.0927478736 6.0216547488 5.9473927383 
6.2190157008 6.1501452836 6.0767621038 5.9992719463 0.064169606361 0 6.2134963469 6.1383094565 6.0578962336 
0.19043743361 0.13304002361 0.069688960264 6.2831853072 6.206940195 6.1241815303 0.3108719077 0.26153055843 0.20642320337 
0.14487585072 0.07624511221 6.2831853072 6.1990255847 0.42269159155 0.38179159818 0.3357925689 0.28391336087 0.22528907359 
0.15900377685 0.084159722458 0 5.6793730533 5.7091357773 5.5901633916 5.743164462 5.6152775188 5.4910209005 
5.7823484065 5.6444075337 5.5096229709 5.3824597928 5.8278025282 5.678536687 5.5314983644 5.3926039573 5.2659633393 
5.8809213739 5.718968232 5.5575666702 5.4046708639 5.2659633393 5.1440684722 5.9434319871 5.7674481418 5.5891129425 
5.4192596322 5.2659633393 5.1329233157 5.0201624502 6.0174235957 5.8263323547 5.6279784266 5.4372443565 5.2659633393 
5.1195510325 4.9978930058 4.8979782167 1.3852070904 1.2852923014 1.2630228569 1.1636342747 1.1502619915 1.139116835 
1.0172219679 1.0172219679 1.0172219679 1.0172219679 0.84594095064 0.86392567495 0.87851444325 0.89058134991 0.90072551443 
0.6552068806 0.69407236469 0.72561863695 0.75168694275 0.77356233629 0.79216440667 0.45685295248 0.51573716537 0.56421707518 
0.60464862014 0.63877777351 0.66790778838 0.69302191562 0.26576171152 0.33975332011 0.40226393329 0.45538277901 0.50083690068 
0.54002084522 0.57404952988 0.60381225391 
_paraPhiHalf 1 1002 double
0 3.1415926536 0 3.1415926536 1.5707963268 1.5707963268 1.5707963268 1.5707963268 2.5880182947 
0.5535743589 2.5880182947 0.5535743589 0 0 0 0 3.1415926536 3.1415926536 
3.1415926536 3.1415926536 3.1415926536 0.17788134 0.38438696014 0.60631181711 0.82323535693 1.0172219679 1.1799687454 
1.3118704726 1.4175000338 1.5022335207 0.17788134 0.38438696014 0.60631181711 0.82323535693 1.0172219679 1.1799687454 
1.3118704726 1.4175000338 1.5022335207 0.093902416448 0.17615329733 0.2478725152 0.31035131605 0.36486382811 0.41257334776 
0.45449736604 0.4915044461 0.52432611754 0.093902416448 0.17615329733 0.2478725152 0.31035131605 0.36486382811 0.41257334776 
0.45449736604 0.4915044461 0.52432611754 2.9637113136 2.7572056934 2.5352808365 2.3183572967 2.1243706857 1.9616239082 
1.829722181 1.7240926197 1.6393591329 2.9637113136 2.7572056934 2.5352808365 2.3183572967 2.1243706857 1.9616239082 
1.829722181 1.7240926197 1.6393591329 3.0476902371 2.9654393563 2.8937201384 2.8312413375 2.7767288255 2.7290193058 
2.6870952876 2.6500882075 2.617266536 3.0476902371 2.9654393563 2.8937201384 2.8312413375 2.7767288255 2.7290193058 
2.6870952876 2.6500882075 2.617266536 0 0 0 0 3.1415926536 3.1415926536 
3.1415926536 3.1415926536 3.1415926536 0.17788134 0.38438696014 0.60631181711 0.82323535693 1.0172219679 1.1799687454 
1.3118704726 1.4175000338 1.5022335207 0.17788134 0.38438696014 0.60631181711 0.82323535693 1.0172219679 1.1799687454 
1.3118704726 1.4175000338 1.5022335207 0.093902416448 0.17615329733 0.2478725152 0.31035131605 0.36486382811 0.41257334776 
0.45449736604 0.4915044461 0.52432611754 0.093902416448 0.17615329733 0.2478725152 0.31035131605 0.36486382811 0.41257334776 
0.45449736604 0.4915044461 0.52432611754 2.9637113136 2.7572056934 2.5352808365 2.3183572967 2.1243706857 1.9616239082 
1.829722181 1.7240926197 1.6393591329 2.9637113136 2.7572056934 2.5352808365 2.3183572967 2.1243706857 1.9616239082 
1.829722181 1.7240926197 1.6393591329 3.0476902371 2.9654393563 2.8937201384 2.8312413375 2.7767288255 2.7290193058 
2.6870952876 2.6500882075 2.617266536 3.0476902371 2.9654393563 2.8937201384 2.8312413375 2.7767288255 2.7290193058 
2.6870952876 2.6500882075 2.617266536 1.5707963268 1.5707963268 1.5707963268 1.5707963268 1.5707963268 1.5707963268 
1.5707963268 1.5707963268 1.5707963268 1.6743954455 1.7840462375 1.8974821136 2.0119052671 2.1243706857 2.232221744 
2.3334263672 2.426721652 2.5115728246 1.4671972081 1.3575464161 1.24411054 1.1296873865 1.0172219679 0.90937090954 
0.80816628637 0.71487100155 0.63001982895 1.6743954455 1.7840462375 1.8974821136 2.0119052671 2.1243706857 2.232221744 
2.3334263672 2.426721652 2.5115728246 1.4671972081 1.3575464161 1.24411054 1.1296873865 1.0172219679 0.90937090954 
0.80816628637 0.71487100155 0.63001982895 1.5707963268 1.5707963268 1.5707963268 1.5707963268 1.5707963268 1.5707963268 
1.5707963268 1.5707963268 1.5707963268 1.6743954455 1.7840462375 1.8974821136 2.0119052671 2.1243706857 2.232221744 
2.3334263672 2.426721652 2.5115728246 1.4671972081 1.3575464161 1.24411054 1.1296873865 1.0172219679 0.90937090954 
0.80816628637 0.71487100155 0.63001982895 1.6743954455 1.7840462375 1.8974821136 2.0119052671 2.1243706857 2.232221744 
2.3334263672 2.426721652 2.5115728246 1.4671972081 1.3575464161 1.24411054 1.1296873865 1.0172219679 0.90937090954 
0.80816628637 0.71487100155 0.63001982895 2.6824132222 2.7864913217 2.8992382033 3.0186096618 3.1415926536 3.0186096618 
2.8992382033 2.7864913217 2.6824132222 0.45917943135 0.35510133185 0.2423544503 0.12298299178 0 0.12298299178 
0.2423544503 0.35510133185 0.45917943135 0.22715816343 0.49462574053 0.3129712797 0.77059342779 0.68021497688 0.49462574053 
1.0172219679 1.0172219679 1.0172219679 1.0172219679 1.2156949949 1.271087727 1.3676273807 1.5707963268 2.1243706857 
1.3676273807 1.447813335 1.5707963268 1.7739652728 2.1243706857 2.6469669131 1.4827341049 1.5707963268 1.6937793186 
1.8705049266 2.1243706857 2.4613776767 2.8286213739 1.5707963268 1.6588585487 1.7739652728 1.9258976586 2.1243706857 
2.3709992258 2.6469669131 2.9144344902 0.26576171152 0.33975332011 0.45685295248 0.40226393329 0.51573716537 0.6552068806 
0.45538277901 0.56421707518 0.69407236469 0.84594095064 0.50083690068 0.60464862014 0.72561863695 0.86392567495 1.0172219679 
0.54002084522 0.63877777351 0.75168694275 0.87851444325 1.0172219679 1.1636342747 0.57404952988 0.66790778838 0.77356233629 
0.89058134991 1.0172219679 1.1502619915 1.2852923014 0.60381225391 0.69302191562 0.79216440667 0.90072551443 1.0172219679 
1.139116835 1.2630228569 1.3852070904 0.71487100155 0.80816628637 0.80816628637 0.90937090954 0.90937090954 0.90937090954 
1.0172219679 1.0172219679 1.0172219679 1.0172219679 1.1296873865 1.1296873865 1.1296873865 1.1296873865 1.1296873865 
1.24411054 1.24411054 1.24411054 1.24411054 1.24411054 1.24411054 1.3575464161 1.3575464161 1.3575464161 
1.3575464161 1.3575464161 1.3575464161 1.3575464161 1.4671972081 1.4671972081 1.4671972081 1.4671972081 1.4671972081 
1.4671972081 1.4671972081 1.4671972081 1.6743954455 1.6743954455 1.7840462375 1.6743954455 1.7840462375 1.8974821136 
1.6743954455 1.7840462375 1.8974821136 2.0119052671 1.6743954455 1.7840462375 1.8974821136 2.0119052671 2.1243706857 
1.6743954455 1.7840462375 1.8974821136 2.0119052671 2.1243706857 2.232221744 1.6743954455 1.7840462375 1.8974821136 
2.0119052671 2.1243706857 2.232221744 2.3334263672 1.6743954455 1.7840462375 1.8974821136 2.0119052671 2.1243706857 
2.232221744 2.3334263672 2.426721652 1.7563855631 1.8785697967 1.8563003522 2.0024758186 1.9913306621 1.9779583789 
2.1243706857 2.1243706857 2.1243706857 2.1243706857 2.2408671392 2.2510113037 2.2630782103 2.2776669786 2.295651703 
2.3494282469 2.3680303173 2.3899057108 2.4159740166 2.4475202889 2.486385773 2.448570738 2.4736848652 2.5028148801 
2.5369440334 2.5773755784 2.6258554882 2.6847397011 2.5377803997 2.5675431237 2.6015718084 2.6407557529 2.6862098746 
2.7393287203 2.8018393335 2.8758309421 2.718901062 2.8307207459 2.7598010554 2.95115522 2.8800620952 2.8058000847 
3.0774230472 3.00855263 2.9351694502 2.8576792927 3.0774230472 3.1415926536 3.0719036933 2.9967168029 2.91630358 
2.95115522 3.00855263 3.0719036933 3.1415926536 3.0653475414 2.9825888767 2.8307207459 2.8800620952 2.9351694502 
2.9967168029 3.0653475414 3.1415926536 3.0574329311 2.718901062 2.7598010554 2.8058000847 2.8576792927 2.91630358 
2.9825888767 3.0574329311 3.1415926536 2.718901062 2.7598010554 2.8307207459 2.8058000847 2.8800620952 2.95115522 
2.8576792927 2.9351694502 3.00855263 3.0774230472 2.91630358 2.9967168029 3.0719036933 3.1415926536 3.0774230472 
2.9825888767 3.0653475414 3.1415926536 3.0719036933 3.00855263 2.95115522 3.0574329311 3.1415926536 3.0653475414 