# vtk DataFile Version 5.1
vtk output
ASCII
DATASET POLYDATA
POINTS 100 float
-4.96943 3.75922 1.14906 -4.97796 3.75292 1.14649 -5.00213 3.73255 1.14286 
-5.04071 3.69823 1.13867 -5.09182 3.65009 1.13457 -5.15315 3.58815 1.13126 
-5.22229 3.51227 1.12931 -5.29702 3.42204 1.12907 -5.37556 3.31686 1.13055 
-5.45681 3.19602 1.13345 -5.54047 3.05891 1.1372 -5.62705 2.9052 1.14105 
-5.71776 2.73506 1.14427 -5.81432 2.5493 1.14623 -5.91868 2.34936 1.14658 
-6.03279 2.13723 1.14525 -6.15823 1.91524 1.14248 -6.29606 1.68576 1.13873 
-6.44664 1.45089 1.13454 -6.60965 1.21218 1.13045 -6.78412 0.970444 1.12677 
-6.96864 0.725742 1.12354 -7.16158 0.477468 1.1205 -7.36135 0.224582 1.11707 
-7.56665 -0.0340938 1.11247 -7.77661 -0.299577 1.10583 -7.99089 -0.572488 1.09636 
-8.20963 -0.852933 1.08345 -8.43331 -1.14053 1.0668 -8.66258 -1.43456 1.04638 
-8.89799 -1.73426 1.02247 -9.13977 -2.03905 0.995534 -9.38768 -2.34883 0.966111 
-9.64091 -2.66406 0.934706 -9.89816 -2.9858 0.90169 -10.1577 -3.31548 0.867258 
-10.4179 -3.65463 0.831432 -10.6768 -4.00453 0.794127 -10.9334 -4.3659 0.755243 
-11.1869 -4.73869 0.714767 -11.4373 -5.12206 0.672862 -11.6854 -5.51454 0.629899 
-11.9322 -5.91443 0.586433 -12.1793 -6.32021 0.543103 -12.4278 -6.73107 0.500494 
-12.6784 -7.14728 0.458951 -12.9311 -7.57038 0.418417 -13.1846 -8.00313 0.378305 
-13.4366 -8.44912 0.337453 -13.6839 -8.91227 0.294165 -13.9222 -9.39605 0.246356 
-14.147 -9.90282 0.191775 -14.3538 -10.4332 0.128281 -14.5382 -10.9858 0.0541275 
-14.6971 -11.5572 -0.0317899 -14.8281 -12.1421 -0.129759 -14.9301 -12.7342 -0.239181 
-15.0035 -13.3271 -0.358612 -15.0495 -13.9146 -0.485914 -15.0702 -14.4918 -0.618488 
-15.0684 -15.0557 -0.753547 -15.0468 -15.6051 -0.888399 -15.0083 -16.1403 -1.02069 
-14.9555 -16.6629 -1.14859 -14.8903 -17.1752 -1.27085 -14.8143 -17.6792 -1.38685 
-14.7287 -18.1762 -1.49647 -14.6342 -18.6665 -1.60001 -14.5312 -19.1493 -1.69797 
-14.4201 -19.6229 -1.79097 -14.3014 -20.0852 -1.87958 -14.1755 -20.5342 -1.96424 
-14.043 -20.9685 -2.04528 -13.9047 -21.3878 -2.12286 -13.7618 -21.7928 -2.19706 
-13.6155 -22.1852 -2.26792 -13.4671 -22.5671 -2.33548 -13.3184 -22.9406 -2.39982 
-13.1713 -23.307 -2.46105 -13.0276 -23.6664 -2.51929 -12.8897 -24.0175 -2.57464 
-12.7597 -24.3572 -2.62712 -12.6398 -24.6819 -2.67664 -12.5321 -24.9872 -2.723 
-12.4385 -25.2692 -2.76585 -12.3603 -25.5248 -2.80475 -12.2984 -25.753 -2.83925 
-12.253 -25.9543 -2.86891 -12.2237 -26.1312 -2.89341 -12.2094 -26.2874 -2.9126 
-12.2082 -26.4273 -2.92655 -12.218 -26.555 -2.93558 -12.2359 -26.6734 -2.94022 
-12.2592 -26.7841 -2.94122 -12.285 -26.8864 -2.93948 -12.3103 -26.9782 -2.93594 
-12.3329 -27.0558 -2.93156 -12.3505 -27.1152 -2.92716 -12.3617 -27.1527 -2.92345 
-12.3656 -27.1656 -2.92088 
LINES 2 100
OFFSETS vtktypeint64
0 100 
CONNECTIVITY vtktypeint64
0 1 2 3 4 5 6 7 8 
9 10 11 12 13 14 15 16 17 
18 19 20 21 22 23 24 25 26 
27 28 29 30 31 32 33 34 35 
36 37 38 39 40 41 42 43 44 
45 46 47 48 49 50 51 52 53 
54 55 56 57 58 59 60 61 62 
63 64 65 66 67 68 69 70 71 
72 73 74 75 76 77 78 79 80 
81 82 83 84 85 86 87 88 89 
90 91 92 93 94 95 96 97 98 
99 
POINT_DATA 100
FIELD FieldData 3
_theta 1 100 double
0 0.031733259127 0.063466518254 0.095199777382 0.12693303651 0.15866629564 0.19039955476 0.22213281389 0.25386607302 
0.28559933214 0.31733259127 0.3490658504 0.38079910953 0.41253236865 0.44426562778 0.47599888691 0.50773214603 0.53946540516 
0.57119866429 0.60293192342 0.63466518254 0.66639844167 0.6981317008 0.72986495992 0.76159821905 0.79333147818 0.82506473731 
0.85679799643 0.88853125556 0.92026451469 0.95199777382 0.98373103294 1.0154642921 1.0471975512 1.0789308103 1.1106640695 
1.1423973286 1.1741305877 1.2058638468 1.237597106 1.2693303651 1.3010636242 1.3327968833 1.3645301425 1.3962634016 
1.4279966607 1.4597299198 1.491463179 1.5231964381 1.5549296972 1.5866629564 1.6183962155 1.6501294746 1.6818627337 
1.7135959929 1.745329252 1.7770625111 1.8087957702 1.8405290294 1.8722622885 1.9039955476 1.9357288068 1.9674620659 
1.999195325 2.0309285841 2.0626618433 2.0943951024 2.1261283615 2.1578616206 2.1895948798 2.2213281389 2.253061398 
2.2847946572 2.3165279163 2.3482611754 2.3799944345 2.4117276937 2.4434609528 2.4751942119 2.506927471 2.5386607302 
2.5703939893 2.6021272484 2.6338605076 2.6655937667 2.6973270258 2.7290602849 2.7607935441 2.7925268032 2.8242600623 
2.8559933214 2.8877265806 2.9194598397 2.9511930988 2.982926358 3.0146596171 3.0463928762 3.0781261353 3.1098593945 
3.1415926536 
_radius 1 100 double
6.040266291e-15 0.32401546148 0.64372541352 0.95520994724 1.255436326 1.5424934968 1.8156252628 2.0750735028 2.3217817981 
2.5570324347 2.7820921203 2.9979276656 3.2050311223 3.4033721927 3.5924760379 3.7716044105 3.9399966848 4.0971103128 
4.2427960881 4.377357513 4.5014733934 4.6160004065 4.7217071234 4.8190128472 4.9078070134 4.9874068922 5.0566780582 
5.1143021848 5.1591390048 5.1906015344 5.2089528322 5.2154435311 5.2122418968 5.2021547501 5.1881853151 5.1730096864 
5.1584694373 5.1451742474 5.1322912134 5.1175725044 5.0976417934 5.068520785 5.0263305427 4.9680555929 4.8922266723 
4.7993767455 4.6921637571 4.5751281165 4.454144118 4.3357025573 4.2261944529 4.1313317559 4.0557477207 4.0027160487 
3.9738906594 3.9690462006 3.985945798 4.0205375147 4.0675779647 4.1215569883 4.1776298463 4.2322672863 4.2834680859 
4.330541277 4.3735924987 4.4129174275 4.4485053378 4.4797903886 4.5056830995 4.5248146208 4.5358727853 4.5379139652 
4.5305778902 4.5141790153 4.4896739488 4.458509355 4.4223546076 4.3827338766 4.3405969505 4.2958986733 4.2472796537 
4.1919423078 4.1257879125 4.0438251407 3.9407955477 3.8119097538 3.6535647441 3.4639184081 3.2432242094 2.9938691833 
2.7201076473 2.4275351738 2.1223921669 1.8108118594 1.498127721 1.1883345696 0.8837668067 0.58502454739 0.29114671527 
2.9478000839e-14 
_area 1 100 double
0 0.28027768414 1.1061303707 2.4355674276 4.2074932584 6.3521271219 8.8010073525 11.494271366 14.384203729 
17.435325579 20.622021415 23.924787342 27.325982411 30.80588262 34.339956396 37.898265429 41.447381359 44.954291357 
48.390958006 51.737883213 54.985167036 58.130031792 61.170706438 64.097978377 66.887151888 69.493781213 71.855842543 
73.903115773 75.572100597 76.822617616 77.65117885 78.096788032 78.23694653 78.17465145 78.020005726 77.871050628 
77.796655563 77.821944412 77.917238472 77.994565039 77.917213251 77.524443139 76.666902976 75.243175181 73.226958295 
70.677475317 67.73112928 64.577843308 61.428808464 58.483291774 55.901657057 53.789735408 52.195979383 51.119433666 
50.524940755 50.359156272 50.557206969 51.036287503 51.688721665 52.394696882 53.058244165 53.641958161 54.169876389 
54.689463672 55.222451386 55.746540925 56.207101274 56.536875352 56.676165867 56.589229618 56.269521067 55.731330665 
54.995149822 54.078208089 52.995498546 51.767482598 50.426647221 49.016704164 47.582599694 46.154233796 44.730140543 
43.268304261 41.689380254 39.893103738 37.783226462 35.292858666 32.402577065 29.147229389 25.611495378 21.917037189 
18.205084479 14.618155401 11.284031737 8.3043486281 5.749142191 3.6574500228 2.0428683307 0.9021407055 0.22453924866 
1.3842991982e-13 
