# vtk DataFile Version 5.1
vtk output
ASCII
DATASET POLYDATA
POINTS 1002 float
-11.5422 -0.108716 -2.66031 -23.9011 -13.3778 -5.29465 -11.0197 -3.35938 3.75668 
-22.5282 -14.3878 0.269151 -14.891 -7.80014 -3.23253 -14.1113 -9.14422 0.204776 
-21.237 -3.58651 -1.00293 -21.4906 -4.90098 3.10166 -20.8617 -25.4193 -4.56399 
-2.02792 -2.60445 0.0381027 -28.617 -17.1527 -2.744 -11.0083 3.88284 2.20694 
-12.4964 -0.787111 -2.75195 -13.6871 -1.63764 -2.84642 -15.1007 -2.69266 -2.96651 
-16.652 -4.00489 -3.12877 -18.3182 -5.59891 -3.34371 -20.0005 -7.34951 -3.65269 
-21.4523 -9.0657 -4.09175 -22.5479 -10.6501 -4.59215 -23.3393 -12.0838 -5.01701 
-11.3168 -0.592997 -2.85965 -11.1671 -1.14081 -3.08282 -11.0971 -1.71026 -3.31346 
-11.0926 -2.43855 -3.47084 -11.2031 -3.40694 -3.53122 -11.5306 -4.367 -3.56528 
-12.143 -5.19279 -3.57598 -13.006 -6.05633 -3.50647 -13.9747 -6.97148 -3.37133 
-12.3854 -0.109444 -2.50892 -13.3443 -0.239306 -2.31936 -14.3965 -0.45894 -2.10988 
-15.5025 -0.71216 -1.92574 -16.5988 -1.0466 -1.75378 -17.6493 -1.50637 -1.55502 
-18.664 -2.02714 -1.3716 -19.6196 -2.55973 -1.24007 -20.4762 -3.09285 -1.12426 
-10.4662 0.209917 -2.67846 -9.223 0.47564 -2.65288 -7.80712 0.638429 -2.53197 
-6.3106 0.611087 -2.31185 -4.83436 0.389072 -2.08532 -3.54774 0.0197757 -1.88551 
-2.66234 -0.539419 -1.56125 -2.18471 -1.27074 -1.0338 -1.98909 -2.00247 -0.450284 
-11.1708 0.536217 -2.4535 -10.8018 1.19075 -2.18045 -10.4666 1.82368 -1.81448 
-10.2309 2.41223 -1.35749 -10.1155 2.97691 -0.881321 -10.1376 3.47625 -0.408537 
-10.3029 3.82398 0.170152 -10.5368 4.00735 0.891678 -10.7736 4.02813 1.61608 
-23.3974 -13.4468 -5.35279 -22.8493 -13.4378 -5.35943 -22.1692 -13.302 -5.28387 
-21.3624 -13.0174 -5.10424 -20.6329 -12.5793 -4.82512 -19.9308 -11.9079 -4.4556 
-18.94 -10.9044 -4.03279 -17.6435 -9.67752 -3.64557 -16.2522 -8.55432 -3.37425 
-24.0512 -12.4608 -5.0436 -24.0872 -11.3904 -4.7156 -23.9975 -10.2157 -4.3279 
-23.7699 -9.11287 -3.84792 -23.4007 -8.10748 -3.28033 -22.9642 -7.04033 -2.76422 
-22.5353 -5.94301 -2.36042 -22.1009 -5.00214 -1.94648 -21.654 -4.24708 -1.46647 
-23.9924 -14.7771 -5.51061 -23.9392 -16.4007 -5.67214 -23.8054 -18.1152 -5.86921 
-23.622 -19.7266 -6.105 -23.3103 -21.3019 -6.23294 -22.8331 -22.9262 -6.21849 
-22.2688 -24.2972 -6.12017 -21.6926 -25.1252 -5.82667 -21.1878 -25.4561 -5.25491 
-24.4964 -14.0979 -5.34381 -25.0542 -14.8483 -5.32535 -25.5543 -15.5847 -5.23478 
-26.1108 -16.2109 -5.08925 -26.7077 -16.6703 -4.89091 -27.1527 -17.0195 -4.58601 
-27.5267 -17.3178 -4.17448 -28.0092 -17.4966 -3.72849 -28.4458 -17.4432 -3.25848 
-12.0366 -3.98214 3.81339 -13.1444 -4.73331 3.81952 -14.3981 -5.6458 3.69116 
-15.8404 -6.67464 3.38553 -17.3924 -7.80757 2.94416 -18.8651 -9.06325 2.39076 
-20.1231 -10.3958 1.74794 -21.1422 -11.7592 1.13411 -21.9352 -13.1174 0.647762 
-10.9337 -3.85659 3.54088 -10.8906 -4.43009 3.30363 -10.9873 -5.04609 3.02706 
-11.2158 -5.69384 2.69701 -11.5096 -6.38649 2.32004 -11.873 -7.05315 1.93139 
-12.3342 -7.64092 1.53952 -12.8793 -8.19655 1.11198 -13.4815 -8.71412 0.652698 
-11.6917 -3.2867 4.04034 -12.3895 -3.25521 4.33559 -13.3335 -3.23891 4.48864 
-14.6806 -3.28465 4.44388 -16.1957 -3.48632 4.36062 -17.5889 -3.78279 4.32146 
-18.8147 -4.04113 4.17936 -19.8568 -4.29038 3.85532 -20.7215 -4.59292 3.45829 
-9.91376 -3.06095 3.57008 -8.7063 -2.76343 3.37756 -7.5313 -2.50544 3.10544 
-6.40689 -2.35405 2.7469 -5.28108 -2.31635 2.38686 -4.22857 -2.33267 2.00833 
-3.32728 -2.37231 1.55415 -2.6089 -2.45215 1.07356 -2.16222 -2.55199 0.581358 
-10.4314 -2.65062 3.83431 -9.83911 -1.78564 3.87017 -9.34975 -0.77972 3.84376 
-9.01412 0.2897 3.76159 -8.84663 1.32475 3.64587 -8.92858 2.19807 3.48307 
-9.30827 2.84996 3.24212 -9.88006 3.344 2.93884 -10.4802 3.70328 2.5977 
-22.0019 -14.1829 0.209419 -21.4188 -13.8486 0.164072 -20.7595 -13.3885 0.162444 
-19.9918 -12.8329 0.222899 -19.1335 -12.1859 0.297074 -18.2175 -11.4289 0.320527 
-17.2266 -10.64 0.318275 -16.1671 -9.97537 0.324275 -15.1061 -9.49646 0.298297 
-22.6978 -13.7232 0.54684 -22.834 -12.926 0.849697 -22.9628 -12.0589 1.19583 
-23.0895 -11.148 1.56381 -23.1431 -10.1515 1.93356 -23.0703 -9.10011 2.29884 
-22.8623 -8.05014 2.60752 -22.4977 -6.98078 2.82232 -22.007 -5.906 2.97722 
-22.6865 -15.5341 -0.150515 -22.7591 -16.7704 -0.632672 -22.7496 -18.1381 -1.10912 
-22.6408 -19.6315 -1.5427 -22.4215 -21.1615 -1.97448 -22.1459 -22.6343 -2.37591 
-21.8558 -23.9331 -2.72261 -21.5178 -24.8795 -3.17409 -21.1481 -25.3625 -3.83673 
-23.1652 -15.2164 0.0901393 -23.8401 -15.9995 -0.110817 -24.559 -16.6524 -0.335229 
-25.3596 -17.1109 -0.567239 -26.2413 -17.4183 -0.810696 -27.0329 -17.6191 -1.07187 
-27.6103 -17.6481 -1.37578 -28.0711 -17.5269 -1.77976 -28.4463 -17.368 -2.27074 
-14.5683 -7.91612 -3.08423 -14.1983 -8.01404 -2.88974 -13.8845 -8.19012 -2.63808 
-13.7384 -8.48108 -2.34324 -13.7229 -8.75694 -1.99 -13.7204 -8.90923 -1.54842 
-13.7259 -9.00044 -1.06369 -13.7952 -9.09493 -0.598121 -13.9317 -9.15552 -0.170535 
-16.5799 -9.20024 -3.26207 -18.0727 -11.2531 -3.58637 -19.0482 -13.7201 -4.17737 
-19.4672 -16.1088 -4.77222 -19.7021 -18.2328 -5.12285 -20.0464 -20.254 -5.20984 
-20.3003 -22.1585 -5.17842 -20.3328 -23.7214 -5.10927 -20.444 -24.8086 -4.92492 
-12.952 -7.04265 -3.27877 -11.0195 -6.63098 -3.30561 -9.29696 -6.09967 -3.13207 
-7.82253 -5.35781 -2.7448 -6.48299 -4.77777 -2.2797 -5.15766 -4.38256 -1.88149 
-3.92021 -3.95292 -1.53329 -2.95528 -3.52237 -1.08063 -2.33352 -3.10362 -0.507928 
-15.398 -9.83625 -0.184453 -16.7593 -10.9383 -0.659935 -18.0512 -12.6616 -1.24493 
-19.0473 -14.8866 -1.88813 -19.6159 -17.2868 -2.49235 -19.9266 -19.6633 -3.02781 
-20.1516 -21.846 -3.47403 -20.2835 -23.5861 -3.82563 -20.4492 -24.7602 -4.17063 
-12.7112 -8.59685 0.319359 -11.2564 -8.02373 0.378052 -9.80452 -7.41458 0.410198 
-8.30626 -6.80908 0.444864 -6.78421 -6.24664 0.460836 -5.40827 -5.69947 0.426394 
-4.22875 -5.05802 0.344921 -3.21002 -4.2877 0.244961 -2.44643 -3.45831 0.147175 
-21.4548 -3.45254 -0.655618 -21.6913 -3.27295 -0.295971 -21.8845 -3.12331 0.139388 
-21.9662 -3.11127 0.73047 -21.9768 -3.23261 1.37621 -21.9771 -3.4174 1.91432 
-21.9252 -3.6792 2.34846 -21.7967 -4.04657 2.70275 -21.6416 -4.47493 2.94565 
-22.2598 -4.46875 -1.17837 -23.3676 -5.41655 -1.41161 -24.5084 -6.42778 -1.68681 
-25.6522 -7.47909 -1.97456 -26.6474 -8.66689 -2.26179 -27.3059 -10.2988 -2.55315 
-27.7553 -12.4388 -2.79828 -28.206 -14.5602 -2.91278 -28.5545 -16.1324 -2.879 
-20.3813 -2.5971 -0.667228 -19.4811 -1.4891 -0.354981 -18.491 -0.361064 -0.00477163 
-17.4215 0.685801 0.379593 -16.3831 1.64981 0.703561 -15.3543 2.50028 0.985241 
-14.2294 3.1176 1.32219 -13.0861 3.49812 1.68773 -12.0243 3.74303 1.99371 
-22.6318 -5.79841 2.70272 -23.848 -6.76579 2.24199 -24.9551 -7.86281 1.6711 
-25.9401 -9.04821 1.05372 -26.8581 -10.2628 0.464128 -27.5592 -11.6481 -0.154269 
-27.9717 -13.2495 -0.8676 -28.2871 -14.8158 -1.61024 -28.5562 -16.1278 -2.25294 
-20.5337 -3.70849 3.42411 -19.5872 -2.39797 3.74763 -18.5773 -1.03837 3.97773 
-17.4455 0.254792 4.04306 -16.2622 1.36419 3.96556 -15.0956 2.20106 3.75553 
-13.965 2.77243 3.41073 -12.9007 3.19863 3.0065 -11.9139 3.57253 2.60697 
-21.7569 -25.7312 -4.49575 -22.8981 -25.549 -4.3262 -23.9371 -24.9137 -4.11022 
-24.8295 -24.0469 -3.90949 -25.7405 -23.0531 -3.70994 -26.5519 -21.9003 -3.48716 
-27.1854 -20.6392 -3.2617 -27.7984 -19.39 -3.06042 -28.3439 -18.2332 -2.89533 
-1.91232 -1.60525 0.245497 -2.12748 -0.439024 0.40848 -2.6737 0.643782 0.535453 
-3.48928 1.51383 0.665 -4.5188 2.3307 0.854075 -5.69288 3.1497 1.12774 
-6.97216 3.7674 1.45445 -8.35911 4.05229 1.77238 -9.75504 4.05113 2.02773 
-12.3865 -1.36455 -2.94139 -12.3951 -1.98721 -3.16885 -13.7112 -2.32166 -3.01616 
-12.4916 -2.60804 -3.40773 -13.8595 -2.99088 -3.24268 -15.261 -3.47161 -3.12759 
-12.6263 -3.40797 -3.53868 -14.1276 -3.67791 -3.46423 -15.5949 -4.24223 -3.35267 
-17.0193 -4.92406 -3.31287 -12.9002 -4.41427 -3.54876 -14.5381 -4.65928 -3.53436 
-16.1726 -5.23038 -3.54666 -17.631 -5.99925 -3.56332 -18.9181 -6.74118 -3.59893 
-13.4941 -5.40695 -3.53521 -15.1915 -5.89794 -3.50509 -16.9497 -6.62906 -3.61783 
-18.4195 -7.43843 -3.80583 -19.6284 -8.14214 -3.93982 -20.6414 -8.68159 -4.0232 
-14.3954 -6.40498 -3.50494 -16.072 -7.17108 -3.51865 -17.7854 -8.16572 -3.68685 
-19.1418 -9.0764 -4.00605 -20.1988 -9.73046 -4.29531 -21.147 -10.1635 -4.46468 
-21.927 -10.4609 -4.55098 -15.3818 -7.49429 -3.43709 -16.9538 -8.4502 -3.57657 
-18.4916 -9.60085 -3.84401 -19.6533 -10.5833 -4.22279 -20.5003 -11.2364 -4.59081 
-21.3555 -11.6358 -4.84915 -22.1686 -11.8867 -4.98797 -22.8052 -12.031 -5.03343 
-10.1559 -0.301943 -2.89705 -8.80758 -0.0807661 -2.86431 -9.8793 -0.842188 -3.12911 
-7.30129 -0.000387633 -2.71292 -8.39618 -0.672239 -3.06407 -9.66361 -1.4755 -3.31566 
-5.77546 -0.127853 -2.47553 -6.86961 -0.726176 -2.86898 -8.11919 -1.44282 -3.19627 
-9.63725 -2.39676 -3.40781 -4.39151 -0.470107 -2.23988 -5.49821 -1.03837 -2.59024 
-6.72693 -1.6734 -2.97181 -8.22041 -2.49725 -3.2649 -9.9009 -3.48924 -3.46011 
-3.33911 -1.02421 -1.97649 -4.3882 -1.57052 -2.28333 -5.63083 -2.16321 -2.64953 
-7.02934 -2.78993 -3.03173 -8.68066 -3.6094 -3.31145 -10.3978 -4.45548 -3.51162 
-2.69857 -1.74609 -1.567 -3.59928 -2.23591 -1.94022 -4.81062 -2.79534 -2.26725 
-6.14584 -3.30238 -2.67509 -7.62916 -3.8916 -3.05462 -9.30651 -4.66342 -3.34357 
-11.0908 -5.35439 -3.51172 -2.38485 -2.48314 -1.03427 -3.13229 -2.9162 -1.53244 
-4.23855 -3.41126 -1.89051 -5.5472 -3.87948 -2.25631 -6.90601 -4.33378 -2.68878 
-8.38867 -5.01052 -3.08496 -10.0843 -5.72552 -3.35436 -11.977 -6.2677 -3.42788 
-2.90177 -3.95803 -0.439913 -3.81278 -4.80823 -0.376472 -3.70318 -4.40133 -1.04066 
-4.96065 -5.58613 -0.275554 -4.76232 -5.26639 -0.984592 -4.84014 -4.82484 -1.50011 
-6.27655 -6.23118 -0.152846 -5.99982 -6.05056 -0.877896 -5.97898 -5.66273 -1.46374 
-6.18049 -5.20476 -1.88537 -7.76169 -6.83324 -0.0724882 -7.37131 -6.77861 -0.756937 
-7.22531 -6.52475 -1.41561 -7.34552 -6.11255 -1.92337 -7.56996 -5.71668 -2.35962 
[...]
POINT_DATA 1002
FIELD FieldData 4
_paraPhi 1 1002 double
6.2831853072 3.1415926536 6.2831853072 3.1415926536 4.7123889804 4.7123889804 1.5707963268 1.5707963268 3.6951670125 
5.7296109483 2.5880182947 0.5535743589 6.2831853072 6.2831853072 6.2831853072 6.2831853072 3.1415926536 3.1415926536 
3.1415926536 3.1415926536 3.1415926536 6.1053039672 5.898798347 5.6768734901 5.4599499503 5.2659633393 5.1032165617 
4.9713148346 4.8656852733 4.7809517865 0.17788134 0.38438696014 0.60631181711 0.82323535693 1.0172219679 1.1799687454 
1.3118704726 1.4175000338 1.5022335207 6.1892828907 6.1070320098 6.035312792 5.9728339911 5.9183214791 5.8706119594 
5.8286879411 5.7916808611 5.7588591896 0.093902416448 0.17615329733 0.2478725152 0.31035131605 0.36486382811 0.41257334776 
0.45449736604 0.4915044461 0.52432611754 3.3194739936 3.5259796137 3.7479044707 3.9648280105 4.1588146215 4.321561399 
4.4534631262 4.5590926874 4.6438261743 2.9637113136 2.7572056934 2.5352808365 2.3183572967 2.1243706857 1.9616239082 
1.829722181 1.7240926197 1.6393591329 3.23549507 3.3177459509 3.3894651688 3.4519439696 3.5064564817 3.5541660013 
3.5960900196 3.6330970997 3.6659187711 3.0476902371 2.9654393563 2.8937201384 2.8312413375 2.7767288255 2.7290193058 
2.6870952876 2.6500882075 2.617266536 6.2831853072 6.2831853072 6.2831853072 6.2831853072 3.1415926536 3.1415926536 
3.1415926536 3.1415926536 3.1415926536 6.1053039672 5.898798347 5.6768734901 5.4599499503 5.2659633393 5.1032165617 
4.9713148346 4.8656852733 4.7809517865 0.17788134 0.38438696014 0.60631181711 0.82323535693 1.0172219679 1.1799687454 
1.3118704726 1.4175000338 1.5022335207 6.1892828907 6.1070320098 6.035312792 5.9728339911 5.9183214791 5.8706119594 
5.8286879411 5.7916808611 5.7588591896 0.093902416448 0.17615329733 0.2478725152 0.31035131605 0.36486382811 0.41257334776 
0.45449736604 0.4915044461 0.52432611754 3.3194739936 3.5259796137 3.7479044707 3.9648280105 4.1588146215 4.321561399 
4.4534631262 4.5590926874 4.6438261743 2.9637113136 2.7572056934 2.5352808365 2.3183572967 2.1243706857 1.9616239082 
1.829722181 1.7240926197 1.6393591329 3.23549507 3.3177459509 3.3894651688 3.4519439696 3.5064564817 3.5541660013 
3.5960900196 3.6330970997 3.6659187711 3.0476902371 2.9654393563 2.8937201384 2.8312413375 2.7767288255 2.7290193058 
2.6870952876 2.6500882075 2.617266536 4.7123889804 4.7123889804 4.7123889804 4.7123889804 4.7123889804 4.7123889804 
4.7123889804 4.7123889804 4.7123889804 4.6087898617 4.4991390697 4.3857031936 4.2712800401 4.1588146215 4.0509635631 
3.94975894 3.8564636551 3.7716124825 4.8159880991 4.9256388911 5.0390747672 5.1534979207 5.2659633393 5.3738143976 
5.4750190208 5.5683143056 5.6531654782 4.6087898617 4.4991390697 4.3857031936 4.2712800401 4.1588146215 4.0509635631 
3.94975894 3.8564636551 3.7716124825 4.8159880991 4.9256388911 5.0390747672 5.1534979207 5.2659633393 5.3738143976 
5.4750190208 5.5683143056 5.6531654782 1.5707963268 1.5707963268 1.5707963268 1.5707963268 1.5707963268 1.5707963268 
1.5707963268 1.5707963268 1.5707963268 1.6743954455 1.7840462375 1.8974821136 2.0119052671 2.1243706857 2.232221744 
2.3334263672 2.426721652 2.5115728246 1.4671972081 1.3575464161 1.24411054 1.1296873865 1.0172219679 0.90937090954 
0.80816628637 0.71487100155 0.63001982895 1.6743954455 1.7840462375 1.8974821136 2.0119052671 2.1243706857 2.232221744 
2.3334263672 2.426721652 2.5115728246 1.4671972081 1.3575464161 1.24411054 1.1296873865 1.0172219679 0.90937090954 
0.80816628637 0.71487100155 0.63001982895 3.6007720849 3.4966939854 3.3839471039 3.2645756454 3.1415926536 3.0186096618 
2.8992382033 2.7864913217 2.6824132222 5.8240058758 5.9280839753 6.0408308569 6.1602023154 6.2831853072 0.12298299178 
0.2423544503 0.35510133185 0.45917943135 6.0560271438 5.7885595667 5.9702140275 5.5125918794 5.6029703303 5.7885595667 
5.2659633393 5.2659633393 5.2659633393 5.2659633393 5.0674903122 5.0120975802 4.9155579264 4.7123889804 4.1588146215 
4.9155579264 4.8353719722 4.7123889804 4.5092200343 4.1588146215 3.6362183941 4.8004512023 4.7123889804 4.5894059886 
4.4126803806 4.1588146215 3.8218076305 3.4545639333 4.7123889804 4.6243267584 4.5092200343 4.3572876485 4.1588146215 
3.9121860814 3.6362183941 3.368750817 6.0174235957 5.9434319871 5.8263323547 5.8809213739 5.7674481418 5.6279784266 
5.8278025282 5.718968232 5.5891129425 5.4372443565 5.7823484065 5.678536687 5.5575666702 5.4192596322 5.2659633393 
5.743164462 5.6444075337 5.5314983644 5.4046708639 5.2659633393 5.1195510325 5.7091357773 5.6152775188 5.5096229709 
5.3926039573 5.2659633393 5.1329233157 4.9978930058 5.6793730533 5.5901633916 5.4910209005 5.3824597928 5.2659633393 
5.1440684722 5.0201624502 4.8979782167 5.5683143056 5.4750190208 5.4750190208 5.3738143976 5.3738143976 5.3738143976 
5.2659633393 5.2659633393 5.2659633393 5.2659633393 5.1534979207 5.1534979207 5.1534979207 5.1534979207 5.1534979207 
5.0390747672 5.0390747672 5.0390747672 5.0390747672 5.0390747672 5.0390747672 4.9256388911 4.9256388911 4.9256388911 
4.9256388911 4.9256388911 4.9256388911 4.9256388911 4.8159880991 4.8159880991 4.8159880991 4.8159880991 4.8159880991 
4.8159880991 4.8159880991 4.8159880991 4.6087898617 4.6087898617 4.4991390697 4.6087898617 4.4991390697 4.3857031936 
4.6087898617 4.4991390697 4.3857031936 4.2712800401 4.6087898617 4.4991390697 4.3857031936 4.2712800401 4.1588146215 
4.6087898617 4.4991390697 4.3857031936 4.2712800401 4.1588146215 4.0509635631 4.6087898617 4.4991390697 4.3857031936 
4.2712800401 4.1588146215 4.0509635631 3.94975894 4.6087898617 4.4991390697 4.3857031936 4.2712800401 4.1588146215 
4.0509635631 3.94975894 3.8564636551 4.526799744 4.4046155105 4.426884955 4.2807094886 4.2918546451 4.3052269283 
4.1588146215 4.1588146215 4.1588146215 4.1588146215 4.042318168 4.0321740035 4.0201070968 4.0055183285 3.9875336042 
3.9337570603 3.9151549899 3.8932795963 3.8672112905 3.8356650183 3.7967995342 3.8346145692 3.809500442 3.7803704271 
3.7462412737 3.7058097288 3.657329819 3.5984456061 3.7454049075 3.7156421835 3.6816134988 3.6424295543 3.5969754326 
3.5438565869 3.4813459737 3.4073543651 3.5642842451 3.4524645613 3.5233842518 3.3320300872 3.403123212 3.4773852225 
3.20576226 3.2746326772 3.348015857 3.4255060145 3.0774230472 3.1415926536 3.2112816139 3.2864685043 3.3668817272 
2.95115522 3.00855263 3.0719036933 3.1415926536 3.2178377658 3.3005964304 2.8307207459 2.8800620952 2.9351694502 
2.9967168029 3.0653475414 3.1415926536 3.225752376 2.718901062 2.7598010554 2.8058000847 2.8576792927 2.91630358 
2.9825888767 3.0574329311 3.1415926536 3.5642842451 3.5233842518 3.4524645613 3.4773852225 3.403123212 3.3320300872 
3.4255060145 3.348015857 3.2746326772 3.20576226 3.3668817272 3.2864685043 3.2112816139 3.1415926536 3.0774230472 
3.3005964304 3.2178377658 3.1415926536 3.0719036933 3.00855263 2.95115522 3.225752376 3.1415926536 3.0653475414 
2.9967168029 2.9351694502 2.8800620952 2.8307207459 3.1415926536 3.0574329311 2.9825888767 2.91630358 2.8576792927 
2.8058000847 2.7598010554 2.718901062 4.526799744 4.426884955 4.4046155105 4.3052269283 4.2918546451 4.2807094886 
4.1588146215 4.1588146215 4.1588146215 4.1588146215 3.9875336042 4.0055183285 4.0201070968 4.0321740035 4.042318168 
3.7967995342 3.8356650183 3.8672112905 3.8932795963 3.9151549899 3.9337570603 3.5984456061 3.657329819 3.7058097288 
3.7462412737 3.7803704271 3.809500442 3.8346145692 3.4073543651 3.4813459737 3.5438565869 3.5969754326 3.6424295543 
3.6816134988 3.7156421835 3.7454049075 4.7123889804 4.8004512023 4.6243267584 4.9155579264 4.7123889804 4.5092200343 
5.0674903122 4.8353719722 4.5894059886 4.3572876485 5.2659633393 5.0120975802 4.7123889804 4.4126803806 4.1588146215 
5.5125918794 5.2659633393 4.9155579264 4.5092200343 4.1588146215 3.9121860814 5.7885595667 5.6029703303 5.2659633393 
4.7123889804 4.1588146215 3.8218076305 3.6362183941 6.0560271438 5.9702140275 5.7885595667 5.2659633393 4.1588146215 
3.6362183941 3.4545639333 3.368750817 0.22715816343 0.49462574053 0.3129712797 0.77059342779 0.68021497688 0.49462574053 
1.0172219679 1.0172219679 1.0172219679 1.0172219679 1.2156949949 1.271087727 1.3676273807 1.5707963268 2.1243706857 
1.3676273807 1.447813335 1.5707963268 1.7739652728 2.1243706857 2.6469669131 1.4827341049 1.5707963268 1.6937793186 
1.8705049266 2.1243706857 2.4613776767 2.8286213739 1.5707963268 1.6588585487 1.7739652728 1.9258976586 2.1243706857 
2.3709992258 2.6469669131 2.9144344902 1.7563855631 1.8785697967 1.8563003522 2.0024758186 1.9913306621 1.9779583789 
2.1243706857 2.1243706857 2.1243706857 2.1243706857 2.2408671392 2.2510113037 2.2630782103 2.2776669786 2.295651703 
2.3494282469 2.3680303173 2.3899057108 2.4159740166 2.4475202889 2.486385773 2.448570738 2.4736848652 2.5028148801 
2.5369440334 2.5773755784 2.6258554882 2.6847397011 2.5377803997 2.5675431237 2.6015718084 2.6407557529 2.6862098746 
2.7393287203 2.8018393335 2.8758309421 1.6743954455 1.6743954455 1.7840462375 1.6743954455 1.7840462375 1.8974821136 
1.6743954455 1.7840462375 1.8974821136 2.0119052671 1.6743954455 1.7840462375 1.8974821136 2.0119052671 2.1243706857 
1.6743954455 1.7840462375 1.8974821136 2.0119052671 2.1243706857 2.232221744 1.6743954455 1.7840462375 1.8974821136 
2.0119052671 2.1243706857 2.232221744 2.3334263672 1.6743954455 1.7840462375 1.8974821136 2.0119052671 2.1243706857 
2.232221744 2.3334263672 2.426721652 1.4671972081 1.3575464161 1.4671972081 1.24411054 1.3575464161 1.4671972081 
1.1296873865 1.24411054 1.3575464161 1.4671972081 1.0172219679 1.1296873865 1.24411054 1.3575464161 1.4671972081 
0.90937090954 1.0172219679 1.1296873865 1.24411054 1.3575464161 1.4671972081 0.80816628637 0.90937090954 1.0172219679 
1.1296873865 1.24411054 1.3575464161 1.4671972081 0.71487100155 0.80816628637 0.90937090954 1.0172219679 1.1296873865 
1.24411054 1.3575464161 1.4671972081 0.60381225391 0.57404952988 0.69302191562 0.54002084522 0.66790778838 0.79216440667 
0.50083690068 0.63877777351 0.77356233629 0.90072551443 0.45538277901 0.60464862014 0.75168694275 0.89058134991 1.0172219679 
0.40226393329 0.56421707518 0.72561863695 0.87851444325 1.0172219679 1.139116835 0.33975332011 0.51573716537 0.69407236469 
0.86392567495 1.0172219679 1.1502619915 1.2630228569 0.26576171152 0.45685295248 0.6552068806 0.84594095064 1.0172219679 
1.1636342747 1.2852923014 1.3852070904 0.22715816343 0.3129712797 0.49462574053 0.49462574053 0.68021497688 0.77059342779 
1.0172219679 1.0172219679 1.0172219679 1.0172219679 2.1243706857 1.5707963268 1.3676273807 1.271087727 1.2156949949 
2.6469669131 2.1243706857 1.7739652728 1.5707963268 1.447813335 1.3676273807 2.8286213739 2.4613776767 2.1243706857 
1.8705049266 1.6937793186 1.5707963268 1.4827341049 2.9144344902 2.6469669131 2.3709992258 2.1243706857 1.9258976586 
1.7739652728 1.6588585487 1.5707963268 1.7563855631 1.8563003522 1.8785697967 1.9779583789 1.9913306621 2.0024758186 
2.1243706857 2.1243706857 2.1243706857 2.1243706857 2.295651703 2.2776669786 2.2630782103 2.2510113037 2.2408671392 
2.486385773 2.4475202889 2.4159740166 2.3899057108 2.3680303173 2.3494282469 2.6847397011 2.6258554882 2.5773755784 
2.5369440334 2.5028148801 2.4736848652 2.448570738 2.8758309421 2.8018393335 2.7393287203 2.6862098746 2.6407557529 
2.6015718084 2.5675431237 2.5377803997 5.8604937156 5.901393709 5.9723133995 5.9473927383 6.0216547488 6.0927478736 
5.9992719463 6.0767621038 6.1501452836 6.2190157008 6.0578962336 6.1383094565 6.2134963469 0 0.064169606361 
6.1241815303 6.206940195 6.2831853072 0.069688960264 0.13304002361 0.19043743361 6.1990255847 0 0.07624511221 
0.14487585072 0.20642320337 0.26153055843 0.3108719077 0 0.084159722458 0.15900377685 0.22528907359 0.28391336087 
0.3357925689 0.38179159818 0.42269159155 5.8604937156 5.9723133995 5.901393709 6.0927478736 6.0216547488 5.9473927383 
6.2190157008 6.1501452836 6.0767621038 5.9992719463 0.064169606361 0 6.2134963469 6.1383094565 6.0578962336 
0.19043743361 0.13304002361 0.069688960264 6.2831853072 6.206940195 6.1241815303 0.3108719077 0.26153055843 0.20642320337 
0.14487585072 0.07624511221 6.2831853072 6.1990255847 0.42269159155 0.38179159818 0.3357925689 0.28391336087 0.22528907359 
0.15900377685 0.084159722458 0 5.6793730533 5.7091357773 5.5901633916 5.743164462 5.6152775188 5.4910209005 
5.7823484065 5.6444075337 5.5096229709 5.3824597928 5.8278025282 5.678536687 5.5314983644 5.3926039573 5.2659633393 
5.8809213739 5.718968232 5.5575666702 5.4046708639 5.2659633393 5.1440684722 5.9434319871 5.7674481418 5.5891129425 
5.4192596322 5.2659633393 5.1329233157 5.0201624502 6.0174235957 5.8263323547 5.6279784266 5.4372443565 5.2659633393 
5.1195510325 4.9978930058 4.8979782167 1.3852070904 1.2852923014 1.2630228569 1.1636342747 1.1502619915 1.139116835 
1.0172219679 1.0172219679 1.0172219679 1.0172219679 0.84594095064 0.86392567495 0.87851444325 0.89058134991 0.90072551443 
0.6552068806 0.69407236469 0.72561863695 0.75168694275 0.77356233629 0.79216440667 0.45685295248 0.51573716537 0.56421707518 
0.60464862014 0.63877777351 0.66790778838 0.69302191562 0.26576171152 0.33975332011 0.40226393329 0.45538277901 0.50083690068 
0.54002084522 0.57404952988 0.60381225391 
_paraPhiHalf 1 1002 double
0 3.1415926536 0 3.1415926536 1.5707963268 1.5707963268 1.5707963268 1.5707963268 2.5880182947 
0.5535743589 2.5880182947 0.5535743589 0 0 0 0 3.1415926536 3.1415926536 
3.1415926536 3.1415926536 3.1415926536 0.17788134 0.38438696014 0.60631181711 0.82323535693 1.0172219679 1.1799687454 
1.3118704726 1.4175000338 1.5022335207 0.17788134 0.38438696014 0.60631181711 0.82323535693 1.0172219679 1.1799687454 
1.3118704726 1.4175000338 1.5022335207 0.093902416448 0.17615329733 0.2478725152 0.31035131605 0.36486382811 0.41257334776 
0.45449736604 0.4915044461 0.52432611754 0.093902416448 0.17615329733 0.2478725152 0.31035131605 0.36486382811 0.41257334776 
0.45449736604 0.4915044461 0.52432611754 2.9637113136 2.7572056934 2.5352808365 2.3183572967 2.1243706857 1.9616239082 
1.829722181 1.7240926197 1.6393591329 2.9637113136 2.7572056934 2.5352808365 2.3183572967 2.1243706857 1.9616239082 
1.829722181 1.7240926197 1.6393591329 3.0476902371 2.9654393563 2.8937201384 2.8312413375 2.7767288255 2.7290193058 
2.6870952876 2.6500882075 2.617266536 3.0476902371 2.9654393563 2.8937201384 2.8312413375 2.7767288255 2.7290193058 
2.6870952876 2.6500882075 2.617266536 0 0 0 0 3.1415926536 3.1415926536 
3.1415926536 3.1415926536 3.1415926536 0.17788134 0.38438696014 0.60631181711 0.82323535693 1.0172219679 1.1799687454 
1.3118704726 1.4175000338 1.5022335207 0.17788134 0.38438696014 0.60631181711 0.82323535693 1.0172219679 1.1799687454 
1.3118704726 1.4175000338 1.5022335207 0.093902416448 0.17615329733 0.2478725152 0.31035131605 0.36486382811 0.41257334776 
0.45449736604 0.4915044461 0.52432611754 0.093902416448 0.17615329733 0.2478725152 0.31035131605 0.36486382811 0.41257334776 
0.45449736604 0.4915044461 0.52432611754 2.9637113136 2.7572056934 2.5352808365 2.3183572967 2.1243706857 1.9616239082 
1.829722181 1.7240926197 1.6393591329 2.9637113136 2.7572056934 2.5352808365 2.3183572967 2.1243706857 1.9616239082 
1.829722181 1.7240926197 1.6393591329 3.0476902371 2.9654393563 2.8937201384 2.8312413375 2.7767288255 2.7290193058 
2.6870952876 2.6500882075 2.617266536 3.0476902371 2.9654393563 2.8937201384 2.8312413375 2.7767288255 2.7290193058 
2.6870952876 2.6500882075 2.617266536 1.5707963268 1.5707963268 1.5707963268 1.5707963268 1.5707963268 1.5707963268 
1.5707963268 1.5707963268 1.5707963268 1.6743954455 1.7840462375 1.8974821136 2.0119052671 2.1243706857 2.232221744 
2.3334263672 2.426721652 2.5115728246 1.4671972081 1.3575464161 1.24411054 1.1296873865 1.0172219679 0.90937090954 
0.80816628637 0.71487100155 0.63001982895 1.6743954455 1.7840462375 1.8974821136 2.0119052671 2.1243706857 2.232221744 
2.3334263672 2.426721652 2.5115728246 1.4671972081 1.3575464161 1.24411054 1.1296873865 1.0172219679 0.90937090954 
0.80816628637 0.71487100155 0.63001982895 1.5707963268 1.5707963268 1.5707963268 1.5707963268 1.5707963268 1.5707963268 
1.5707963268 1.5707963268 1.5707963268 1.6743954455 1.7840462375 1.8974821136 2.0119052671 2.1243706857 2.232221744 
2.3334263672 2.426721652 2.5115728246 1.4671972081 1.3575464161 1.24411054 1.1296873865 1.0172219679 0.90937090954 
0.80816628637 0.71487100155 0.63001982895 1.6743954455 1.7840462375 1.8974821136 2.0119052671 2.1243706857 2.232221744 
2.3334263672 2.426721652 2.5115728246 1.4671972081 1.3575464161 1.24411054 1.1296873865 1.0172219679 0.90937090954 
0.80816628637 0.71487100155 0.63001982895 2.6824132222 2.7864913217 2.8992382033 3.0186096618 3.1415926536 3.0186096618 
2.8992382033 2.7864913217 2.6824132222 0.45917943135 0.35510133185 0.2423544503 0.12298299178 0 0.12298299178 
0.2423544503 0.35510133185 0.45917943135 0.22715816343 0.49462574053 0.3129712797 0.77059342779 0.68021497688 0.49462574053 
1.0172219679 1.0172219679 1.0172219679 1.0172219679 1.2156949949 1.271087727 1.3676273807 1.5707963268 2.1243706857 
1.3676273807 1.447813335 1.5707963268 1.7739652728 2.1243706857 2.6469669131 1.4827341049 1.5707963268 1.6937793186 
1.8705049266 2.1243706857 2.4613776767 2.8286213739 1.5707963268 1.6588585487 1.7739652728 1.9258976586 2.1243706857 
2.3709992258 2.6469669131 2.9144344902 0.26576171152 0.33975332011 0.45685295248 0.40226393329 0.51573716537 0.6552068806 
0.45538277901 0.56421707518 0.69407236469 0.84594095064 0.50083690068 0.60464862014 0.72561863695 0.86392567495 1.0172219679 
0.54002084522 0.63877777351 0.75168694275 0.87851444325 1.0172219679 1.1636342747 0.57404952988 0.66790778838 0.77356233629 
0.89058134991 1.0172219679 1.1502619915 1.2852923014 0.60381225391 0.69302191562 0.79216440667 0.90072551443 1.0172219679 
1.139116835 1.2630228569 1.3852070904 0.71487100155 0.80816628637 0.80816628637 0.90937090954 0.90937090954 0.90937090954 
1.0172219679 1.0172219679 1.0172219679 1.0172219679 1.1296873865 1.1296873865 1.1296873865 1.1296873865 1.1296873865 
1.24411054 1.24411054 1.24411054 1.24411054 1.24411054 1.24411054 1.3575464161 1.3575464161 1.3575464161 
1.3575464161 1.3575464161 1.3575464161 1.3575464161 1.4671972081 1.4671972081 1.4671972081 1.4671972081 1.4671972081 
1.4671972081 1.4671972081 1.4671972081 1.6743954455 1.6743954455 1.7840462375 1.6743954455 1.7840462375 1.8974821136 
1.6743954455 1.7840462375 1.8974821136 2.0119052671 1.6743954455 1.7840462375 1.8974821136 2.0119052671 2.1243706857 
1.6743954455 1.7840462375 1.8974821136 2.0119052671 2.1243706857 2.232221744 1.6743954455 1.7840462375 1.8974821136 
2.0119052671 2.1243706857 2.232221744 2.3334263672 1.6743954455 1.7840462375 1.8974821136 2.0119052671 2.1243706857 
2.232221744 2.3334263672 2.426721652 1.7563855631 1.8785697967 1.8563003522 2.0024758186 1.9913306621 1.9779583789 
2.1243706857 2.1243706857 2.1243706857 2.1243706857 2.2408671392 2.2510113037 2.2630782103 2.2776669786 2.295651703 
2.3494282469 2.3680303173 2.3899057108 2.4159740166 2.4475202889 2.486385773 2.448570738 2.4736848652 2.5028148801 
2.5369440334 2.5773755784 2.6258554882 2.6847397011 2.5377803997 2.5675431237 2.6015718084 2.6407557529 2.6862098746 
2.7393287203 2.8018393335 2.8758309421 2.718901062 2.8307207459 2.7598010554 2.95115522 2.8800620952 2.8058000847 
3.0774230472 3.00855263 2.9351694502 2.8576792927 3.0774230472 3.1415926536 3.0719036933 2.9967168029 2.91630358 
2.95115522 3.00855263 3.0719036933 3.1415926536 3.0653475414 2.9825888767 2.8307207459 2.8800620952 2.9351694502 
2.9967168029 3.0653475414 3.1415926536 3.0574329311 2.718901062 2.7598010554 2.8058000847 2.8576792927 2.91630358 
2.9825888767 3.0574329311 3.1415926536 2.718901062 2.7598010554 2.8307207459 2.8058000847 2.8800620952 2.95115522 
2.8576792927 2.9351694502 3.00855263 3.0774230472 2.91630358 2.9967168029 3.0719036933 3.1415926536 3.0774230472 
2.9825888767 3.0653475414 3.1415926536 3.0719036933 3.00855263 2.95115522 3.0574329311 3.1415926536 3.0653475414 