# vtk DataFile Version 5.1
vtk output
ASCII
DATASET POLYDATA
POINTS 1002 float
-11.9522 -0.592726 -2.61 -23.5971 -13.1031 -5.01314 -11.0805 -3.49338 3.50936 
-22.2736 -14.0277 0.184844 -14.9965 -7.40225 -3.34709 -14.3231 -8.64476 0.0974863 
-21.1985 -3.35929 -1.10039 -21.845 -4.95766 3.01792 -19.9342 -24.1156 -4.38558 
-2.97267 -3.45372 -0.0116548 -27.8944 -16.7534 -2.38433 -11.1592 3.21019 2.08059 
-12.8973 -1.16408 -2.75516 -13.9907 -1.80428 -2.94337 -15.2704 -2.60726 -3.13167 
-16.7399 -3.75444 -3.233 -18.3337 -5.27555 -3.3233 -19.9086 -6.98289 -3.57481 
-21.2821 -8.67789 -3.97294 -22.3357 -10.2628 -4.38875 -23.0813 -11.7289 -4.7469 
-11.7801 -0.977798 -2.86003 -11.6181 -1.47679 -3.08794 -11.5216 -2.17054 -3.25424 
-11.5458 -2.95581 -3.41374 -11.7292 -3.71391 -3.6688 -12.1515 -4.55449 -3.93125 
-12.8263 -5.47099 -3.9723 -13.5909 -6.23127 -3.77259 -14.3083 -6.81257 -3.52239 
-12.7076 -0.57403 -2.4291 -13.574 -0.58798 -2.24956 -14.5647 -0.657087 -2.09763 
-15.6131 -0.79105 -1.95672 -16.6643 -1.01575 -1.81439 -17.7133 -1.38015 -1.66439 
-18.7125 -1.84405 -1.51218 -19.6201 -2.32968 -1.37476 -20.4488 -2.83482 -1.24176 
-10.8931 -0.314551 -2.59571 -9.6668 -0.153764 -2.48655 -8.31092 -0.150673 -2.31297 
-6.98855 -0.279954 -2.12923 -5.79469 -0.552793 -1.89366 -4.67873 -1.02792 -1.60772 
-3.73656 -1.64953 -1.34042 -3.1691 -2.28053 -1.01421 -2.96368 -2.87547 -0.540964 
-11.5065 0.000766844 -2.36422 -11.0846 0.624233 -2.06523 -10.7528 1.18821 -1.68037 
-10.5337 1.69483 -1.22416 -10.3941 2.20932 -0.741772 -10.3502 2.69785 -0.261949 
-10.453 3.06975 0.256623 -10.6695 3.28099 0.870019 -10.9185 3.32108 1.51774 
-23.1429 -13.0765 -5.07362 -22.587 -12.9517 -5.12176 -21.9373 -12.7465 -5.05782 
-21.2353 -12.4679 -4.84721 -20.4494 -11.9883 -4.58259 -19.5559 -11.1436 -4.26316 
-18.6077 -9.99669 -3.85262 -17.5485 -8.83605 -3.50541 -16.3022 -7.93588 -3.35846 
-23.711 -12.2259 -4.79003 -23.7371 -11.2788 -4.45668 -23.6596 -10.2269 -4.03576 
-23.4729 -9.05488 -3.6338 -23.1957 -7.8806 -3.24529 -22.8397 -6.81662 -2.77285 
-22.423 -5.83215 -2.27556 -21.9985 -4.90121 -1.85733 -21.5938 -4.06996 -1.4837 
-23.6946 -14.5466 -5.2381 -23.6309 -16.1178 -5.44713 -23.4219 -17.6448 -5.67326 
-23.1249 -19.0861 -5.84413 -22.7407 -20.5706 -5.89576 -22.2084 -22.048 -5.91144 
-21.5335 -23.2235 -5.87396 -20.8282 -23.9176 -5.59374 -20.2549 -24.1761 -5.03701 
-24.1274 -13.9392 -5.10103 -24.6615 -14.8046 -5.12058 -25.1549 -15.6387 -5.02196 
-25.6339 -16.3158 -4.84869 -26.154 -16.7611 -4.62567 -26.6582 -17.0314 -4.29703 
-27.1004 -17.1768 -3.90185 -27.4969 -17.1787 -3.48339 -27.7865 -17.0292 -2.97613 
-12.1577 -4.01313 3.47025 -13.3559 -4.66702 3.44889 -14.6674 -5.4834 3.36908 
-16.0796 -6.39484 3.06286 -17.5446 -7.44283 2.58869 -18.9454 -8.7354 2.11303 
-20.124 -10.1414 1.58221 -21.0215 -11.4813 0.996018 -21.7121 -12.7705 0.517963 
-11.0729 -3.95823 3.2979 -11.0642 -4.46669 3.07022 -11.1656 -5.04781 2.79635 
-11.4298 -5.66108 2.47052 -11.7793 -6.20914 2.08675 -12.177 -6.67811 1.63262 
-12.6587 -7.15339 1.17547 -13.1995 -7.67309 0.792089 -13.755 -8.1886 0.452689 
-11.7036 -3.35784 3.73638 -12.3889 -3.25046 3.98859 -13.2976 -3.145 4.0901 
-14.549 -3.08508 3.9651 -16.0082 -3.19292 3.80465 -17.4396 -3.51596 3.72325 
-18.7845 -3.95401 3.62248 -20.0413 -4.36876 3.46827 -21.0903 -4.6966 3.27604 
-10.0217 -3.31181 3.39697 -8.9044 -3.15578 3.18918 -7.79993 -3.03033 2.87088 
-6.69833 -2.98395 2.56963 -5.60811 -3.03353 2.3127 -4.63774 -3.14735 1.99369 
-3.84275 -3.28677 1.62173 -3.25773 -3.39614 1.19493 -2.96848 -3.44437 0.633187 
-10.4308 -2.83218 3.64016 -9.82576 -2.00684 3.70088 -9.3935 -1.10194 3.68272 
-9.14914 -0.207618 3.62334 -9.05118 0.676658 3.53285 -9.18248 1.51202 3.37602 
-9.60401 2.196 3.13898 -10.1761 2.69766 2.84068 -10.7168 3.0338 2.48732 
-21.7743 -13.8613 0.140184 -21.2274 -13.5522 0.106928 -20.6248 -13.0503 0.056468 
-19.9472 -12.3614 0.0164497 -19.1628 -11.5761 0.0564418 -18.2556 -10.7937 0.145979 
-17.2704 -10.0695 0.212031 -16.2622 -9.45145 0.239598 -15.2637 -8.97864 0.207344 
-22.4389 -13.3529 0.445082 -22.6011 -12.6401 0.780996 -22.7386 -11.8961 1.17524 
-22.8302 -11.0573 1.55249 -22.8641 -10.0909 1.88668 -22.8456 -9.05751 2.20626 
-22.7686 -8.00583 2.5005 -22.5899 -6.94132 2.73855 -22.2738 -5.90451 2.91171 
-22.4767 -15.249 -0.174941 -22.615 -16.5633 -0.636041 -22.6126 -17.9767 -1.12053 
-22.4289 -19.5421 -1.49409 -22.082 -21.1133 -1.82558 -21.6044 -22.4602 -2.22564 
-21.0273 -23.502 -2.64822 -20.4549 -24.1471 -3.1267 -20.0613 -24.3163 -3.738 
-22.8943 -14.8544 0.0339272 -23.5314 -15.6458 -0.151106 -24.1813 -16.3468 -0.33725 
-24.8672 -16.9118 -0.476818 -25.6023 -17.2712 -0.663244 -26.3353 -17.395 -0.945549 
-26.9671 -17.3648 -1.21298 -27.4411 -17.2582 -1.49564 -27.7516 -17.0618 -1.90785 
-14.6792 -7.59462 -3.24444 -14.4649 -7.80502 -3.0533 -14.3072 -7.99253 -2.76522 
-14.1161 -8.14697 -2.4286 -13.926 -8.30303 -2.0582 -13.8383 -8.48121 -1.62721 
-13.8686 -8.64386 -1.15092 -13.9767 -8.72979 -0.679151 -14.1349 -8.71865 -0.255054 
-16.549 -8.63814 -3.28922 -18.0473 -10.6824 -3.47087 -19.0302 -13.1097 -3.90565 
-19.2886 -15.2322 -4.45835 -19.2571 -17.0021 -4.88719 -19.4369 -18.7963 -5.03599 
-19.725 -20.5634 -4.99466 -19.8403 -22.0544 -4.88821 -19.8376 -23.2379 -4.69403 
-13.2728 -6.88391 -3.46146 -11.6412 -6.61247 -3.46473 -10.1854 -6.21947 -3.21634 
-8.76877 -5.73397 -2.79642 -7.32261 -5.36264 -2.33651 -5.99214 -5.01601 -1.87786 
-4.89754 -4.64928 -1.44604 -4.0264 -4.33478 -1.01828 -3.37366 -3.96724 -0.535278 
-15.5597 -9.33124 -0.261869 -16.9638 -10.4176 -0.769213 -18.3075 -12.2543 -1.32778 
-19.2449 -14.7461 -1.84367 -19.6288 -17.2066 -2.34865 -19.6877 -19.1732 -2.8643 
-19.7073 -20.7681 -3.30523 -19.7283 -22.1556 -3.64929 -19.7556 -23.3029 -3.98994 
-13.0353 -8.13363 0.145656 -11.6744 -7.66608 0.172827 -10.2212 -7.26901 0.230236 
-8.72323 -6.97943 0.273289 -7.3027 -6.74706 0.274223 -5.99771 -6.43519 0.280876 
-4.82605 -5.93897 0.294555 -3.91111 -5.23902 0.262397 -3.31695 -4.37914 0.15565 
-21.3811 -3.27004 -0.73821 -21.5365 -3.16655 -0.328353 -21.6729 -3.07446 0.132335 
-21.8189 -3.05241 0.709742 -21.9472 -3.14302 1.35192 -21.9626 -3.36584 1.85842 
-21.8841 -3.71274 2.20416 -21.8517 -4.1266 2.52378 -21.8794 -4.54861 2.82133 
-22.1799 -4.3414 -1.21664 -23.1987 -5.34544 -1.39066 -24.2256 -6.33701 -1.63509 
-25.2467 -7.63166 -1.95663 -26.2013 -9.52067 -2.32571 -26.9994 -11.6146 -2.59551 
-27.5706 -13.3226 -2.65735 -27.8778 -14.6261 -2.59594 -27.9575 -15.7578 -2.50522 
-20.3221 -2.36037 -0.784426 -19.3792 -1.32686 -0.443709 -18.3896 -0.267545 -0.095286 
-17.3212 0.72434 0.26612 -16.2149 1.53856 0.64664 -15.1637 2.21265 1.01427 
-14.1274 2.7507 1.34101 -13.0673 3.05901 1.62676 -12.0662 3.17562 1.87274 
-22.7668 -5.80657 2.63628 -23.7814 -6.846 2.19951 -24.8757 -8.09018 1.75061 
-25.8638 -9.40164 1.26604 -26.6427 -10.7603 0.6549 -27.2617 -12.2114 -0.0505074 
-27.6864 -13.576 -0.698169 -27.882 -14.7387 -1.27073 -27.9325 -15.7929 -1.83865 
-20.9097 -3.84384 3.26647 -19.7853 -2.55376 3.48241 -18.5264 -1.14366 3.6535 
-17.2557 0.197298 3.78191 -16.0414 1.28966 3.80783 -14.902 2.05958 3.63463 
-13.8586 2.52844 3.28439 -12.8916 2.80689 2.87271 -11.9836 3.01944 2.46823 
-20.4513 -24.7425 -4.41249 -21.4602 -24.7748 -4.35775 -22.8145 -24.1567 -4.16617 
-24.1203 -23.28 -3.91375 -25.1142 -22.3744 -3.6749 -25.8951 -21.2468 -3.38392 
-26.6511 -20 -3.05763 -27.3082 -18.9007 -2.80462 -27.7099 -17.8564 -2.60366 
-2.7406 -2.43811 0.206116 -2.74564 -1.38435 0.440478 -3.08735 -0.455194 0.660262 
-3.80779 0.433554 0.826408 -4.83544 1.36587 0.986642 -6.06669 2.2287 1.24524 
-7.42592 2.89455 1.565 -8.80262 3.25793 1.81064 -10.0642 3.30926 1.96113 
-12.8142 -1.58188 -3.05628 -12.7688 -2.16752 -3.30927 -14.0468 -2.31371 -3.25609 
-12.7913 -2.93741 -3.44557 -14.1833 -3.03001 -3.47457 -15.5153 -3.29182 -3.37976 
-12.9188 -3.7163 -3.56787 -14.3917 -3.84819 -3.56733 -15.8877 -4.1547 -3.53877 
-17.1626 -4.66544 -3.4004 -13.2722 -4.49876 -3.7709 -14.7169 -4.65356 -3.66514 
-16.3551 -5.08113 -3.65737 -17.7278 -5.72494 -3.57167 -18.8503 -6.4082 -3.50738 
-13.9648 -5.41651 -3.86914 -15.3033 -5.60886 -3.76065 -16.9123 -6.15629 -3.78399 
-18.3693 -6.93934 -3.7949 -19.445 -7.69877 -3.77611 -20.4052 -8.27077 -3.85952 
-14.8414 -6.32891 -3.71803 -16.1275 -6.72306 -3.70203 -17.5496 -7.47551 -3.8339 
-18.9509 -8.38561 -3.99359 -20.0103 -9.155 -4.09652 -20.8537 -9.67333 -4.22092 
-21.6619 -10.0131 -4.34499 -15.6391 -7.12093 -3.48665 -16.9276 -7.79171 -3.55845 
-18.1493 -8.80111 -3.81585 -19.3462 -9.87087 -4.12285 -20.3646 -10.6649 -4.3607 
-21.1603 -11.121 -4.57342 -21.8905 -11.3963 -4.73261 -22.5548 -11.5952 -4.77615 
-10.6231 -0.772633 -2.79313 -9.30379 -0.738799 -2.62381 -10.3914 -1.40768 -2.95763 
-7.90471 -0.867517 -2.43513 -9.03467 -1.53141 -2.7687 -10.2884 -2.21595 -3.13105 
-6.58357 -1.0701 -2.26382 -7.63319 -1.74413 -2.60339 -8.94936 -2.39886 -2.98217 
-10.3652 -3.0206 -3.38304 -5.39455 -1.42403 -2.02828 -6.34976 -1.98591 -2.43269 
-7.60746 -2.63119 -2.79521 -9.10225 -3.19692 -3.22134 -10.6322 -3.83144 -3.68592 
-4.37903 -2.04594 -1.74026 -5.27931 -2.45472 -2.17524 -6.48234 -2.98975 -2.56214 
-7.93611 -3.51276 -2.91688 -9.50524 -4.08067 -3.41255 -11.1255 -4.79837 -3.87913 
-3.71123 -2.77504 -1.43431 -4.51383 -3.15897 -1.84737 -5.64387 -3.58205 -2.26858 
-7.05721 -4.02785 -2.62441 -8.575 -4.47868 -3.01862 -10.1288 -5.10078 -3.53225 
-11.8004 -5.73508 -3.85099 -3.42941 -3.41317 -1.03354 -4.13324 -3.81442 -1.46346 
-5.11397 -4.19163 -1.88522 -6.40671 -4.59839 -2.30704 -7.88652 -4.96241 -2.70384 
-9.36639 -5.4276 -3.14582 -10.868 -5.98871 -3.55115 -12.5283 -6.40121 -3.66981 
-3.86913 -4.7871 -0.396317 -4.63569 -5.57164 -0.326202 -4.71498 -5.05957 -0.91603 
-5.66514 -6.31126 -0.325046 -5.64198 -5.83982 -0.881151 -5.74222 -5.35394 -1.37246 
-6.85669 -6.86504 -0.312127 -6.71722 -6.61204 -0.902002 -6.75615 -6.09958 -1.36645 
-6.92667 -5.6797 -1.8476 -8.2076 -7.15834 -0.239929 -7.92661 -7.1528 -0.882647 
-7.89021 -6.8165 -1.4271 -8.00989 -6.37069 -1.88652 -8.32495 -6.03089 -2.38026 
[...]
POINT_DATA 1002
FIELD FieldData 4
_paraPhi 1 1002 double
6.2831853072 3.1415926536 6.2831853072 3.1415926536 4.7123889804 4.7123889804 1.5707963268 1.5707963268 3.6951670125 
5.7296109483 2.5880182947 0.5535743589 6.2831853072 6.2831853072 6.2831853072 6.2831853072 3.1415926536 3.1415926536 
3.1415926536 3.1415926536 3.1415926536 6.1053039672 5.898798347 5.6768734901 5.4599499503 5.2659633393 5.1032165617 
4.9713148346 4.8656852733 4.7809517865 0.17788134 0.38438696014 0.60631181711 0.82323535693 1.0172219679 1.1799687454 
1.3118704726 1.4175000338 1.5022335207 6.1892828907 6.1070320098 6.035312792 5.9728339911 5.9183214791 5.8706119594 
5.8286879411 5.7916808611 5.7588591896 0.093902416448 0.17615329733 0.2478725152 0.31035131605 0.36486382811 0.41257334776 
0.45449736604 0.4915044461 0.52432611754 3.3194739936 3.5259796137 3.7479044707 3.9648280105 4.1588146215 4.321561399 
4.4534631262 4.5590926874 4.6438261743 2.9637113136 2.7572056934 2.5352808365 2.3183572967 2.1243706857 1.9616239082 
1.829722181 1.7240926197 1.6393591329 3.23549507 3.3177459509 3.3894651688 3.4519439696 3.5064564817 3.5541660013 
3.5960900196 3.6330970997 3.6659187711 3.0476902371 2.9654393563 2.8937201384 2.8312413375 2.7767288255 2.7290193058 
2.6870952876 2.6500882075 2.617266536 6.2831853072 6.2831853072 6.2831853072 6.2831853072 3.1415926536 3.1415926536 
3.1415926536 3.1415926536 3.1415926536 6.1053039672 5.898798347 5.6768734901 5.4599499503 5.2659633393 5.1032165617 
4.9713148346 4.8656852733 4.7809517865 0.17788134 0.38438696014 0.60631181711 0.82323535693 1.0172219679 1.1799687454 
1.3118704726 1.4175000338 1.5022335207 6.1892828907 6.1070320098 6.035312792 5.9728339911 5.9183214791 5.8706119594 
5.8286879411 5.7916808611 5.7588591896 0.093902416448 0.17615329733 0.2478725152 0.31035131605 0.36486382811 0.41257334776 
0.45449736604 0.4915044461 0.52432611754 3.3194739936 3.5259796137 3.7479044707 3.9648280105 4.1588146215 4.321561399 
4.4534631262 4.5590926874 4.6438261743 2.9637113136 2.7572056934 2.5352808365 2.3183572967 2.1243706857 1.9616239082 
1.829722181 1.7240926197 1.6393591329 3.23549507 3.3177459509 3.3894651688 3.4519439696 3.5064564817 3.5541660013 
3.5960900196 3.6330970997 3.6659187711 3.0476902371 2.9654393563 2.8937201384 2.8312413375 2.7767288255 2.7290193058 
2.6870952876 2.6500882075 2.617266536 4.7123889804 4.7123889804 4.7123889804 4.7123889804 4.7123889804 4.7123889804 
4.7123889804 4.7123889804 4.7123889804 4.6087898617 4.4991390697 4.3857031936 4.2712800401 4.1588146215 4.0509635631 
3.94975894 3.8564636551 3.7716124825 4.8159880991 4.9256388911 5.0390747672 5.1534979207 5.2659633393 5.3738143976 
5.4750190208 5.5683143056 5.6531654782 4.6087898617 4.4991390697 4.3857031936 4.2712800401 4.1588146215 4.0509635631 
3.94975894 3.8564636551 3.7716124825 4.8159880991 4.9256388911 5.0390747672 5.1534979207 5.2659633393 5.3738143976 
5.4750190208 5.5683143056 5.6531654782 1.5707963268 1.5707963268 1.5707963268 1.5707963268 1.5707963268 1.5707963268 
1.5707963268 1.5707963268 1.5707963268 1.6743954455 1.7840462375 1.8974821136 2.0119052671 2.1243706857 2.232221744 
2.3334263672 2.426721652 2.5115728246 1.4671972081 1.3575464161 1.24411054 1.1296873865 1.0172219679 0.90937090954 
0.80816628637 0.71487100155 0.63001982895 1.6743954455 1.7840462375 1.8974821136 2.0119052671 2.1243706857 2.232221744 
2.3334263672 2.426721652 2.5115728246 1.4671972081 1.3575464161 1.24411054 1.1296873865 1.0172219679 0.90937090954 
0.80816628637 0.71487100155 0.63001982895 3.6007720849 3.4966939854 3.3839471039 3.2645756454 3.1415926536 3.0186096618 
2.8992382033 2.7864913217 2.6824132222 5.8240058758 5.9280839753 6.0408308569 6.1602023154 6.2831853072 0.12298299178 
0.2423544503 0.35510133185 0.45917943135 6.0560271438 5.7885595667 5.9702140275 5.5125918794 5.6029703303 5.7885595667 
5.2659633393 5.2659633393 5.2659633393 5.2659633393 5.0674903122 5.0120975802 4.9155579264 4.7123889804 4.1588146215 
4.9155579264 4.8353719722 4.7123889804 4.5092200343 4.1588146215 3.6362183941 4.8004512023 4.7123889804 4.5894059886 
4.4126803806 4.1588146215 3.8218076305 3.4545639333 4.7123889804 4.6243267584 4.5092200343 4.3572876485 4.1588146215 
3.9121860814 3.6362183941 3.368750817 6.0174235957 5.9434319871 5.8263323547 5.8809213739 5.7674481418 5.6279784266 
5.8278025282 5.718968232 5.5891129425 5.4372443565 5.7823484065 5.678536687 5.5575666702 5.4192596322 5.2659633393 
5.743164462 5.6444075337 5.5314983644 5.4046708639 5.2659633393 5.1195510325 5.7091357773 5.6152775188 5.5096229709 
5.3926039573 5.2659633393 5.1329233157 4.9978930058 5.6793730533 5.5901633916 5.4910209005 5.3824597928 5.2659633393 
5.1440684722 5.0201624502 4.8979782167 5.5683143056 5.4750190208 5.4750190208 5.3738143976 5.3738143976 5.3738143976 
5.2659633393 5.2659633393 5.2659633393 5.2659633393 5.1534979207 5.1534979207 5.1534979207 5.1534979207 5.1534979207 
5.0390747672 5.0390747672 5.0390747672 5.0390747672 5.0390747672 5.0390747672 4.9256388911 4.9256388911 4.9256388911 
4.9256388911 4.9256388911 4.9256388911 4.9256388911 4.8159880991 4.8159880991 4.8159880991 4.8159880991 4.8159880991 
4.8159880991 4.8159880991 4.8159880991 4.6087898617 4.6087898617 4.4991390697 4.6087898617 4.4991390697 4.3857031936 
4.6087898617 4.4991390697 4.3857031936 4.2712800401 4.6087898617 4.4991390697 4.3857031936 4.2712800401 4.1588146215 
4.6087898617 4.4991390697 4.3857031936 4.2712800401 4.1588146215 4.0509635631 4.6087898617 4.4991390697 4.3857031936 
4.2712800401 4.1588146215 4.0509635631 3.94975894 4.6087898617 4.4991390697 4.3857031936 4.2712800401 4.1588146215 
4.0509635631 3.94975894 3.8564636551 4.526799744 4.4046155105 4.426884955 4.2807094886 4.2918546451 4.3052269283 
4.1588146215 4.1588146215 4.1588146215 4.1588146215 4.042318168 4.0321740035 4.0201070968 4.0055183285 3.9875336042 
3.9337570603 3.9151549899 3.8932795963 3.8672112905 3.8356650183 3.7967995342 3.8346145692 3.809500442 3.7803704271 
3.7462412737 3.7058097288 3.657329819 3.5984456061 3.7454049075 3.7156421835 3.6816134988 3.6424295543 3.5969754326 
3.5438565869 3.4813459737 3.4073543651 3.5642842451 3.4524645613 3.5233842518 3.3320300872 3.403123212 3.4773852225 
3.20576226 3.2746326772 3.348015857 3.4255060145 3.0774230472 3.1415926536 3.2112816139 3.2864685043 3.3668817272 
2.95115522 3.00855263 3.0719036933 3.1415926536 3.2178377658 3.3005964304 2.8307207459 2.8800620952 2.9351694502 
2.9967168029 3.0653475414 3.1415926536 3.225752376 2.718901062 2.7598010554 2.8058000847 2.8576792927 2.91630358 
2.9825888767 3.0574329311 3.1415926536 3.5642842451 3.5233842518 3.4524645613 3.4773852225 3.403123212 3.3320300872 
3.4255060145 3.348015857 3.2746326772 3.20576226 3.3668817272 3.2864685043 3.2112816139 3.1415926536 3.0774230472 
3.3005964304 3.2178377658 3.1415926536 3.0719036933 3.00855263 2.95115522 3.225752376 3.1415926536 3.0653475414 
2.9967168029 2.9351694502 2.8800620952 2.8307207459 3.1415926536 3.0574329311 2.9825888767 2.91630358 2.8576792927 
2.8058000847 2.7598010554 2.718901062 4.526799744 4.426884955 4.4046155105 4.3052269283 4.2918546451 4.2807094886 
4.1588146215 4.1588146215 4.1588146215 4.1588146215 3.9875336042 4.0055183285 4.0201070968 4.0321740035 4.042318168 
3.7967995342 3.8356650183 3.8672112905 3.8932795963 3.9151549899 3.9337570603 3.5984456061 3.657329819 3.7058097288 
3.7462412737 3.7803704271 3.809500442 3.8346145692 3.4073543651 3.4813459737 3.5438565869 3.5969754326 3.6424295543 
3.6816134988 3.7156421835 3.7454049075 4.7123889804 4.8004512023 4.6243267584 4.9155579264 4.7123889804 4.5092200343 
5.0674903122 4.8353719722 4.5894059886 4.3572876485 5.2659633393 5.0120975802 4.7123889804 4.4126803806 4.1588146215 
5.5125918794 5.2659633393 4.9155579264 4.5092200343 4.1588146215 3.9121860814 5.7885595667 5.6029703303 5.2659633393 
4.7123889804 4.1588146215 3.8218076305 3.6362183941 6.0560271438 5.9702140275 5.7885595667 5.2659633393 4.1588146215 
3.6362183941 3.4545639333 3.368750817 0.22715816343 0.49462574053 0.3129712797 0.77059342779 0.68021497688 0.49462574053 
1.0172219679 1.0172219679 1.0172219679 1.0172219679 1.2156949949 1.271087727 1.3676273807 1.5707963268 2.1243706857 
1.3676273807 1.447813335 1.5707963268 1.7739652728 2.1243706857 2.6469669131 1.4827341049 1.5707963268 1.6937793186 
1.8705049266 2.1243706857 2.4613776767 2.8286213739 1.5707963268 1.6588585487 1.7739652728 1.9258976586 2.1243706857 
2.3709992258 2.6469669131 2.9144344902 1.7563855631 1.8785697967 1.8563003522 2.0024758186 1.9913306621 1.9779583789 
2.1243706857 2.1243706857 2.1243706857 2.1243706857 2.2408671392 2.2510113037 2.2630782103 2.2776669786 2.295651703 
2.3494282469 2.3680303173 2.3899057108 2.4159740166 2.4475202889 2.486385773 2.448570738 2.4736848652 2.5028148801 
2.5369440334 2.5773755784 2.6258554882 2.6847397011 2.5377803997 2.5675431237 2.6015718084 2.6407557529 2.6862098746 
2.7393287203 2.8018393335 2.8758309421 1.6743954455 1.6743954455 1.7840462375 1.6743954455 1.7840462375 1.8974821136 
1.6743954455 1.7840462375 1.8974821136 2.0119052671 1.6743954455 1.7840462375 1.8974821136 2.0119052671 2.1243706857 
1.6743954455 1.7840462375 1.8974821136 2.0119052671 2.1243706857 2.232221744 1.6743954455 1.7840462375 1.8974821136 
2.0119052671 2.1243706857 2.232221744 2.3334263672 1.6743954455 1.7840462375 1.8974821136 2.0119052671 2.1243706857 
2.232221744 2.3334263672 2.426721652 1.4671972081 1.3575464161 1.4671972081 1.24411054 1.3575464161 1.4671972081 
1.1296873865 1.24411054 1.3575464161 1.4671972081 1.0172219679 1.1296873865 1.24411054 1.3575464161 1.4671972081 
0.90937090954 1.0172219679 1.1296873865 1.24411054 1.3575464161 1.4671972081 0.80816628637 0.90937090954 1.0172219679 
1.1296873865 1.24411054 1.3575464161 1.4671972081 0.71487100155 0.80816628637 0.90937090954 1.0172219679 1.1296873865 
1.24411054 1.3575464161 1.4671972081 0.60381225391 0.57404952988 0.69302191562 0.54002084522 0.66790778838 0.79216440667 
0.50083690068 0.63877777351 0.77356233629 0.90072551443 0.45538277901 0.60464862014 0.75168694275 0.89058134991 1.0172219679 
0.40226393329 0.56421707518 0.72561863695 0.87851444325 1.0172219679 1.139116835 0.33975332011 0.51573716537 0.69407236469 
0.86392567495 1.0172219679 1.1502619915 1.2630228569 0.26576171152 0.45685295248 0.6552068806 0.84594095064 1.0172219679 
1.1636342747 1.2852923014 1.3852070904 0.22715816343 0.3129712797 0.49462574053 0.49462574053 0.68021497688 0.77059342779 
1.0172219679 1.0172219679 1.0172219679 1.0172219679 2.1243706857 1.5707963268 1.3676273807 1.271087727 1.2156949949 
2.6469669131 2.1243706857 1.7739652728 1.5707963268 1.447813335 1.3676273807 2.8286213739 2.4613776767 2.1243706857 
1.8705049266 1.6937793186 1.5707963268 1.4827341049 2.9144344902 2.6469669131 2.3709992258 2.1243706857 1.9258976586 
1.7739652728 1.6588585487 1.5707963268 1.7563855631 1.8563003522 1.8785697967 1.9779583789 1.9913306621 2.0024758186 
2.1243706857 2.1243706857 2.1243706857 2.1243706857 2.295651703 2.2776669786 2.2630782103 2.2510113037 2.2408671392 
2.486385773 2.4475202889 2.4159740166 2.3899057108 2.3680303173 2.3494282469 2.6847397011 2.6258554882 2.5773755784 
2.5369440334 2.5028148801 2.4736848652 2.448570738 2.8758309421 2.8018393335 2.7393287203 2.6862098746 2.6407557529 
2.6015718084 2.5675431237 2.5377803997 5.8604937156 5.901393709 5.9723133995 5.9473927383 6.0216547488 6.0927478736 
5.9992719463 6.0767621038 6.1501452836 6.2190157008 6.0578962336 6.1383094565 6.2134963469 0 0.064169606361 
6.1241815303 6.206940195 6.2831853072 0.069688960264 0.13304002361 0.19043743361 6.1990255847 0 0.07624511221 
0.14487585072 0.20642320337 0.26153055843 0.3108719077 0 0.084159722458 0.15900377685 0.22528907359 0.28391336087 
0.3357925689 0.38179159818 0.42269159155 5.8604937156 5.9723133995 5.901393709 6.0927478736 6.0216547488 5.9473927383 
6.2190157008 6.1501452836 6.0767621038 5.9992719463 0.064169606361 0 6.2134963469 6.1383094565 6.0578962336 
0.19043743361 0.13304002361 0.069688960264 6.2831853072 6.206940195 6.1241815303 0.3108719077 0.26153055843 0.20642320337 
0.14487585072 0.07624511221 6.2831853072 6.1990255847 0.42269159155 0.38179159818 0.3357925689 0.28391336087 0.22528907359 
0.15900377685 0.084159722458 0 5.6793730533 5.7091357773 5.5901633916 5.743164462 5.6152775188 5.4910209005 
5.7823484065 5.6444075337 5.5096229709 5.3824597928 5.8278025282 5.678536687 5.5314983644 5.3926039573 5.2659633393 
5.8809213739 5.718968232 5.5575666702 5.4046708639 5.2659633393 5.1440684722 5.9434319871 5.7674481418 5.5891129425 
5.4192596322 5.2659633393 5.1329233157 5.0201624502 6.0174235957 5.8263323547 5.6279784266 5.4372443565 5.2659633393 
5.1195510325 4.9978930058 4.8979782167 1.3852070904 1.2852923014 1.2630228569 1.1636342747 1.1502619915 1.139116835 
1.0172219679 1.0172219679 1.0172219679 1.0172219679 0.84594095064 0.86392567495 0.87851444325 0.89058134991 0.90072551443 
0.6552068806 0.69407236469 0.72561863695 0.75168694275 0.77356233629 0.79216440667 0.45685295248 0.51573716537 0.56421707518 
0.60464862014 0.63877777351 0.66790778838 0.69302191562 0.26576171152 0.33975332011 0.40226393329 0.45538277901 0.50083690068 
0.54002084522 0.57404952988 0.60381225391 
_paraPhiHalf 1 1002 double
0 3.1415926536 0 3.1415926536 1.5707963268 1.5707963268 1.5707963268 1.5707963268 2.5880182947 
0.5535743589 2.5880182947 0.5535743589 0 0 0 0 3.1415926536 3.1415926536 
3.1415926536 3.1415926536 3.1415926536 0.17788134 0.38438696014 0.60631181711 0.82323535693 1.0172219679 1.1799687454 
1.3118704726 1.4175000338 1.5022335207 0.17788134 0.38438696014 0.60631181711 0.82323535693 1.0172219679 1.1799687454 
1.3118704726 1.4175000338 1.5022335207 0.093902416448 0.17615329733 0.2478725152 0.31035131605 0.36486382811 0.41257334776 
0.45449736604 0.4915044461 0.52432611754 0.093902416448 0.17615329733 0.2478725152 0.31035131605 0.36486382811 0.41257334776 
0.45449736604 0.4915044461 0.52432611754 2.9637113136 2.7572056934 2.5352808365 2.3183572967 2.1243706857 1.9616239082 
1.829722181 1.7240926197 1.6393591329 2.9637113136 2.7572056934 2.5352808365 2.3183572967 2.1243706857 1.9616239082 
1.829722181 1.7240926197 1.6393591329 3.0476902371 2.9654393563 2.8937201384 2.8312413375 2.7767288255 2.7290193058 
2.6870952876 2.6500882075 2.617266536 3.0476902371 2.9654393563 2.8937201384 2.8312413375 2.7767288255 2.7290193058 
2.6870952876 2.6500882075 2.617266536 0 0 0 0 3.1415926536 3.1415926536 
3.1415926536 3.1415926536 3.1415926536 0.17788134 0.38438696014 0.60631181711 0.82323535693 1.0172219679 1.1799687454 
1.3118704726 1.4175000338 1.5022335207 0.17788134 0.38438696014 0.60631181711 0.82323535693 1.0172219679 1.1799687454 
1.3118704726 1.4175000338 1.5022335207 0.093902416448 0.17615329733 0.2478725152 0.31035131605 0.36486382811 0.41257334776 
0.45449736604 0.4915044461 0.52432611754 0.093902416448 0.17615329733 0.2478725152 0.31035131605 0.36486382811 0.41257334776 
0.45449736604 0.4915044461 0.52432611754 2.9637113136 2.7572056934 2.5352808365 2.3183572967 2.1243706857 1.9616239082 
1.829722181 1.7240926197 1.6393591329 2.9637113136 2.7572056934 2.5352808365 2.3183572967 2.1243706857 1.9616239082 
1.829722181 1.7240926197 1.6393591329 3.0476902371 2.9654393563 2.8937201384 2.8312413375 2.7767288255 2.7290193058 
2.6870952876 2.6500882075 2.617266536 3.0476902371 2.9654393563 2.8937201384 2.8312413375 2.7767288255 2.7290193058 
2.6870952876 2.6500882075 2.617266536 1.5707963268 1.5707963268 1.5707963268 1.5707963268 1.5707963268 1.5707963268 
1.5707963268 1.5707963268 1.5707963268 1.6743954455 1.7840462375 1.8974821136 2.0119052671 2.1243706857 2.232221744 
2.3334263672 2.426721652 2.5115728246 1.4671972081 1.3575464161 1.24411054 1.1296873865 1.0172219679 0.90937090954 
0.80816628637 0.71487100155 0.63001982895 1.6743954455 1.7840462375 1.8974821136 2.0119052671 2.1243706857 2.232221744 
2.3334263672 2.426721652 2.5115728246 1.4671972081 1.3575464161 1.24411054 1.1296873865 1.0172219679 0.90937090954 
0.80816628637 0.71487100155 0.63001982895 1.5707963268 1.5707963268 1.5707963268 1.5707963268 1.5707963268 1.5707963268 
1.5707963268 1.5707963268 1.5707963268 1.6743954455 1.7840462375 1.8974821136 2.0119052671 2.1243706857 2.232221744 
2.3334263672 2.426721652 2.5115728246 1.4671972081 1.3575464161 1.24411054 1.1296873865 1.0172219679 0.90937090954 
0.80816628637 0.71487100155 0.63001982895 1.6743954455 1.7840462375 1.8974821136 2.0119052671 2.1243706857 2.232221744 
2.3334263672 2.426721652 2.5115728246 1.4671972081 1.3575464161 1.24411054 1.1296873865 1.0172219679 0.90937090954 
0.80816628637 0.71487100155 0.63001982895 2.6824132222 2.7864913217 2.8992382033 3.0186096618 3.1415926536 3.0186096618 
2.8992382033 2.7864913217 2.6824132222 0.45917943135 0.35510133185 0.2423544503 0.12298299178 0 0.12298299178 
0.2423544503 0.35510133185 0.45917943135 0.22715816343 0.49462574053 0.3129712797 0.77059342779 0.68021497688 0.49462574053 
1.0172219679 1.0172219679 1.0172219679 1.0172219679 1.2156949949 1.271087727 1.3676273807 1.5707963268 2.1243706857 
1.3676273807 1.447813335 1.5707963268 1.7739652728 2.1243706857 2.6469669131 1.4827341049 1.5707963268 1.6937793186 
1.8705049266 2.1243706857 2.4613776767 2.8286213739 1.5707963268 1.6588585487 1.7739652728 1.9258976586 2.1243706857 
2.3709992258 2.6469669131 2.9144344902 0.26576171152 0.33975332011 0.45685295248 0.40226393329 0.51573716537 0.6552068806 
0.45538277901 0.56421707518 0.69407236469 0.84594095064 0.50083690068 0.60464862014 0.72561863695 0.86392567495 1.0172219679 
0.54002084522 0.63877777351 0.75168694275 0.87851444325 1.0172219679 1.1636342747 0.57404952988 0.66790778838 0.77356233629 
0.89058134991 1.0172219679 1.1502619915 1.2852923014 0.60381225391 0.69302191562 0.79216440667 0.90072551443 1.0172219679 
1.139116835 1.2630228569 1.3852070904 0.71487100155 0.80816628637 0.80816628637 0.90937090954 0.90937090954 0.90937090954 
1.0172219679 1.0172219679 1.0172219679 1.0172219679 1.1296873865 1.1296873865 1.1296873865 1.1296873865 1.1296873865 
1.24411054 1.24411054 1.24411054 1.24411054 1.24411054 1.24411054 1.3575464161 1.3575464161 1.3575464161 
1.3575464161 1.3575464161 1.3575464161 1.3575464161 1.4671972081 1.4671972081 1.4671972081 1.4671972081 1.4671972081 
1.4671972081 1.4671972081 1.4671972081 1.6743954455 1.6743954455 1.7840462375 1.6743954455 1.7840462375 1.8974821136 
1.6743954455 1.7840462375 1.8974821136 2.0119052671 1.6743954455 1.7840462375 1.8974821136 2.0119052671 2.1243706857 
1.6743954455 1.7840462375 1.8974821136 2.0119052671 2.1243706857 2.232221744 1.6743954455 1.7840462375 1.8974821136 
2.0119052671 2.1243706857 2.232221744 2.3334263672 1.6743954455 1.7840462375 1.8974821136 2.0119052671 2.1243706857 
2.232221744 2.3334263672 2.426721652 1.7563855631 1.8785697967 1.8563003522 2.0024758186 1.9913306621 1.9779583789 
2.1243706857 2.1243706857 2.1243706857 2.1243706857 2.2408671392 2.2510113037 2.2630782103 2.2776669786 2.295651703 
2.3494282469 2.3680303173 2.3899057108 2.4159740166 2.4475202889 2.486385773 2.448570738 2.4736848652 2.5028148801 
2.5369440334 2.5773755784 2.6258554882 2.6847397011 2.5377803997 2.5675431237 2.6015718084 2.6407557529 2.6862098746 
2.7393287203 2.8018393335 2.8758309421 2.718901062 2.8307207459 2.7598010554 2.95115522 2.8800620952 2.8058000847 
3.0774230472 3.00855263 2.9351694502 2.8576792927 3.0774230472 3.1415926536 3.0719036933 2.9967168029 2.91630358 
2.95115522 3.00855263 3.0719036933 3.1415926536 3.0653475414 2.9825888767 2.8307207459 2.8800620952 2.9351694502 
2.9967168029 3.0653475414 3.1415926536 3.0574329311 2.718901062 2.7598010554 2.8058000847 2.8576792927 2.91630358 
2.9825888767 3.0574329311 3.1415926536 2.718901062 2.7598010554 2.8307207459 2.8058000847 2.8800620952 2.95115522 
2.8576792927 2.9351694502 3.00855263 3.0774230472 2.91630358 2.9967168029 3.0719036933 3.1415926536 3.0774230472 
2.9825888767 3.0653475414 3.1415926536 3.0719036933 3.00855263 2.95115522 3.0574329311 3.1415926536 3.0653475414 