# vtk DataFile Version 5.1
vtk output
ASCII
DATASET POLYDATA
POINTS 1002 float
-8.77892 -0.210293 -3.51251 9.05085 -0.564946 -3.25526 -8.09877 0.352506 3.42687 
7.94374 -0.610569 2.21477 -1.50787 2.14954 -2.43101 -1.44301 2.17957 1.33913 
-0.59928 -5.86189 -2.0334 0.164335 -6.50344 2.27276 15.4802 8.46524 1.5711 
-13.4672 7.31383 1.04427 14.5417 -2.4875 0.0162117 -12.7987 -3.47357 -0.04213 
-7.68197 -0.52306 -3.54672 -6.37778 -0.902279 -3.60056 -4.8275 -1.31138 -3.68348 
-2.96621 -1.68857 -3.65479 -0.760741 -1.95313 -3.45632 1.64649 -1.9986 -3.30167 
3.93703 -1.80573 -3.31732 5.90713 -1.46436 -3.36906 7.59198 -1.04267 -3.34766 
-8.5442 0.268591 -3.60944 -8.24088 0.746152 -3.70061 -7.80887 1.20207 -3.7146 
-7.13858 1.67945 -3.621 -6.29046 2.16054 -3.51421 -5.45339 2.48065 -3.4395 
-4.58853 2.57005 -3.27517 -3.56934 2.51556 -2.98444 -2.49452 2.3658 -2.68279 
-8.29192 -0.883929 -3.46101 -7.65211 -1.61338 -3.43349 -6.90118 -2.36496 -3.38035 
-6.11724 -3.09945 -3.24479 -5.27748 -3.79395 -3.0955 -4.32659 -4.40695 -2.97602 
-3.32079 -4.8794 -2.78137 -2.34384 -5.23467 -2.49202 -1.42992 -5.55377 -2.22322 
-9.66914 0.397685 -3.48294 -10.5946 1.12157 -3.32806 -11.553 2.00504 -3.04317 
-12.4616 3.00715 -2.67149 -13.2029 4.03177 -2.18103 -13.7278 5.01748 -1.57635 
-14.039 5.90556 -0.944174 -14.1094 6.60619 -0.28641 -13.9041 7.06913 0.404179 
-9.53 -0.348161 -3.41284 -10.2696 -0.534044 -3.26818 -10.9548 -0.779589 -3.06478 
-11.5665 -1.09673 -2.79552 -12.1125 -1.47521 -2.47866 -12.5638 -1.89677 -2.13839 
-12.8387 -2.34843 -1.72735 -12.9242 -2.79492 -1.19477 -12.8963 -3.18123 -0.600561 
8.69738 -0.22736 -3.27137 8.22692 0.10721 -3.29207 7.63344 0.42472 -3.29436 
6.85163 0.71081 -3.1965 5.81768 0.916764 -2.97269 4.53573 0.986375 -2.71787 
3.01615 0.995362 -2.5325 1.34318 1.13098 -2.45383 -0.238747 1.52006 -2.44851 
8.4355 -1.22411 -3.29283 7.62935 -1.9327 -3.30721 6.61807 -2.68357 -3.3282 
5.5093 -3.37859 -3.27258 4.43331 -3.95006 -3.04536 3.35484 -4.47399 -2.80595 
2.22295 -4.9765 -2.69937 1.14602 -5.36778 -2.57582 0.214963 -5.63841 -2.32256 
10.2254 0.240519 -3.08849 11.3757 1.24116 -2.79759 12.4461 2.35348 -2.41219 
13.4729 3.49705 -1.97285 14.4874 4.68606 -1.47425 15.3316 5.87683 -0.945461 
15.805 6.92597 -0.419985 15.9055 7.75593 0.182047 15.7605 8.30242 0.894586 
10.0465 -0.470558 -3.14632 10.9702 -0.4052 -2.98463 11.839 -0.381451 -2.75558 
12.6864 -0.404593 -2.43601 13.4049 -0.509587 -2.02419 13.9121 -0.738239 -1.60178 
14.3059 -1.10559 -1.24612 14.6155 -1.58184 -0.894872 14.716 -2.07395 -0.461383 
-6.97326 -0.0401993 3.49144 -5.67582 -0.49856 3.49088 -4.17373 -0.961671 3.44141 
-2.49574 -1.34243 3.35472 -0.68281 -1.62834 3.20636 1.26365 -1.79015 2.95426 
3.22044 -1.73092 2.63637 4.99838 -1.45177 2.38297 6.55968 -1.05296 2.25947 
-7.72581 0.765107 3.38548 -7.26518 1.13734 3.25673 -6.70759 1.48926 3.12139 
-6.06447 1.83606 3.00334 -5.34892 2.08768 2.80573 -4.57203 2.21053 2.53395 
-3.76817 2.30329 2.27937 -2.97487 2.36432 2.01505 -2.19931 2.31463 1.69093 
-7.73767 -0.329347 3.46082 -7.31954 -1.02322 3.52378 -6.89743 -1.67823 3.66707 
-6.35442 -2.41333 3.72055 -5.47895 -3.30998 3.49801 -4.3073 -4.17975 3.14624 
-3.0504 -4.90087 2.89795 -1.82867 -5.55516 2.73637 -0.730355 -6.12236 2.54012 
-8.94484 1.00593 3.29308 -9.78516 1.734 3.08371 -10.6207 2.56376 2.90052 
-11.4306 3.49813 2.85343 -12.139 4.44672 2.85794 -12.7052 5.27754 2.73461 
-13.144 5.97986 2.45533 -13.4346 6.60277 2.07035 -13.5378 7.08041 1.58893 
-9.00402 0.29009 3.32382 -9.98637 0.172154 3.17018 -10.9647 -0.0471941 2.99061 
-11.8191 -0.412888 2.73624 -12.4943 -0.881614 2.37219 -13.0057 -1.38658 1.9573 
-13.3141 -1.94969 1.52282 -13.3446 -2.56788 1.03336 -13.1302 -3.11424 0.49325 
7.47366 -0.395818 2.08701 6.88192 -0.182138 1.99838 6.14566 0.0539928 1.94581 
5.24067 0.242497 1.85082 4.16034 0.369635 1.73937 2.95286 0.556353 1.69609 
1.7092 0.841901 1.66488 0.518921 1.19133 1.57237 -0.544219 1.63483 1.45092 
7.52027 -1.1722 2.33518 7.01916 -1.84236 2.3808 6.42274 -2.55426 2.37898 
5.70569 -3.21733 2.43096 4.90597 -3.86045 2.55151 4.10151 -4.52826 2.6291 
3.25941 -5.15856 2.60146 2.28962 -5.69817 2.51459 1.22043 -6.14783 2.40758 
9.02677 0.0510799 2.10228 10.1745 0.87487 2.03768 11.3593 1.88273 2.15276 
12.5345 3.04268 2.43519 13.6126 4.27281 2.67964 14.523 5.49617 2.81783 
15.1928 6.65605 2.88505 15.5365 7.63423 2.72873 15.5872 8.25945 2.23933 
9.02148 -0.488981 2.26855 10.0833 -0.40596 2.286 11.0736 -0.389942 2.2756 
12.0176 -0.518238 2.24346 12.9062 -0.843412 2.0985 13.6 -1.26305 1.81313 
14.0564 -1.65212 1.47792 14.3809 -2.00161 1.08341 14.5734 -2.29804 0.576607 
-1.62413 2.45897 -2.2259 -1.74798 2.75812 -1.93242 -1.79639 2.99945 -1.54429 
-1.73994 3.1596 -1.13029 -1.65172 3.22899 -0.7272 -1.59849 3.177 -0.27159 
-1.56839 2.99843 0.230728 -1.53329 2.73895 0.67814 -1.48944 2.45417 1.03725 
0.391446 1.62997 -2.19249 2.90404 1.71497 -1.91803 5.58327 2.5968 -1.70547 
7.66653 3.86553 -1.55446 9.1831 4.97974 -1.25015 10.8352 5.90125 -0.682571 
12.61 6.80751 -0.0431119 13.9696 7.64963 0.520184 14.8459 8.24688 1.04926 
-3.03183 3.16773 -2.46541 -4.40789 4.25455 -2.33724 -5.86673 5.10595 -2.05178 
-7.32514 5.75735 -1.65167 -8.58228 6.34916 -1.17412 -9.73121 6.83806 -0.675708 
-10.8342 7.19457 -0.194405 -11.8049 7.44469 0.269769 -12.6713 7.51032 0.694547 
-0.042181 1.72827 1.04081 1.74297 1.53326 0.733323 4.01401 1.80821 0.516819 
6.60094 2.66946 0.577326 8.95442 3.97379 0.936755 10.767 5.29437 1.31107 
12.2767 6.39274 1.53522 13.6263 7.36523 1.6918 14.6978 8.14226 1.74276 
-2.71576 2.93919 1.44969 -3.99534 3.77429 1.55953 -5.29435 4.55833 1.6757 
-6.58961 5.32998 1.80597 -7.86304 6.16031 1.92185 -9.08662 6.94018 1.96226 
-10.2116 7.48084 1.88693 -11.2931 7.69032 1.69836 -12.4077 7.6004 1.41095 
-0.607793 -6.19404 -1.77398 -0.646774 -6.53788 -1.48021 -0.683231 -6.87396 -1.03852 
-0.657723 -7.16746 -0.434025 -0.564621 -7.30443 0.163961 -0.460906 -7.23641 0.660158 
-0.356827 -7.10612 1.12291 -0.204558 -6.99564 1.57273 -0.00871871 -6.81392 1.96188 
0.728033 -6.02212 -2.05118 2.16868 -6.14119 -2.06157 3.66976 -6.21814 -2.07227 
5.22643 -6.20692 -2.09664 6.98225 -5.83229 -2.03375 9.00387 -4.99061 -1.7791 
11.0129 -4.09996 -1.37668 12.6547 -3.48754 -0.914038 13.8122 -3.01508 -0.436874 
-1.92858 -5.91591 -1.88809 -3.38154 -6.01502 -1.80601 -4.88692 -6.07223 -1.7237 
-6.35352 -5.9973 -1.58163 -7.72371 -5.8518 -1.43547 -9.00313 -5.64472 -1.26835 
-10.1885 -5.25724 -0.992944 -11.2108 -4.71062 -0.661979 -12.0581 -4.11088 -0.349347 
1.6076 -6.5522 2.02163 3.12376 -6.58636 1.72951 4.74689 -6.67305 1.50046 
6.4171 -6.64505 1.32695 8.04474 -6.22568 1.10208 9.64464 -5.45414 0.815574 
11.2075 -4.62831 0.570327 12.6141 -3.89052 0.392302 13.7433 -3.1932 0.215586 
-1.44208 -6.60237 2.25044 -3.21978 -6.64376 2.14342 -5.05853 -6.64819 2.03691 
-6.77818 -6.54024 1.95059 -8.23845 -6.22559 1.77224 -9.43434 -5.81119 1.46269 
-10.4537 -5.38799 1.09112 -11.3647 -4.8465 0.696071 -12.1566 -4.16327 0.307695 
16.2407 8.20021 1.63837 16.9311 7.26615 1.56108 17.3635 5.90074 1.38274 
17.4147 4.56075 1.18401 17.1378 3.34844 0.995369 16.6533 2.0524 0.782012 
16.1312 0.701252 0.540774 15.6735 -0.52972 0.326576 15.1849 -1.59706 0.160707 
-14.5067 6.78048 0.957324 -15.305 6.02327 0.831419 -15.6822 5.05275 0.685151 
-15.7713 3.86677 0.462854 -15.742 2.51355 0.159454 -15.5376 1.07203 -0.0595612 
-15.0817 -0.345677 -0.0925786 -14.4073 -1.58613 -0.052925 -13.6081 -2.60494 -0.0430307 
-7.35656 -0.0706486 -3.64316 -6.93666 0.361077 -3.72335 -5.92827 -0.488599 -3.68158 
-6.34428 0.764397 -3.71032 -5.34991 -0.105004 -3.70941 -4.18997 -0.964407 -3.7081 
-5.5308 1.16875 -3.61437 -4.56831 0.23671 -3.63334 -3.37465 -0.650502 -3.63284 
-2.04534 -1.41609 -3.5917 -4.62618 1.48867 -3.50427 -3.59336 0.501325 -3.48931 
-2.3261 -0.372598 -3.47069 -0.893558 -1.12034 -3.46304 0.48746 -1.6504 -3.39522 
-3.69317 1.61566 -3.33078 -2.5129 0.636553 -3.28696 -1.08828 -0.158892 -3.25632 
0.464445 -0.761609 -3.30284 1.91746 -1.21852 -3.34969 3.07116 -1.53783 -3.33303 
-2.61044 1.61391 -3.03993 -1.30096 0.738831 -3.00427 0.266708 0.0797183 -2.99155 
1.90307 -0.32647 -3.09839 3.37782 -0.63152 -3.26906 4.50205 -0.916518 -3.36439 
5.29801 -1.18847 -3.37447 -1.40371 1.57118 -2.71992 0.0363354 0.91249 -2.70549 
1.67754 0.484337 -2.73369 3.29403 0.266297 -2.88268 4.70733 0.0927762 -3.12425 
5.78948 -0.148081 -3.31338 6.54998 -0.438073 -3.37288 7.12377 -0.741051 -3.36586 
-9.45996 0.956018 -3.56311 -10.4107 1.78821 -3.3378 -9.1694 1.52332 -3.6056 
-11.354 2.789 -2.96922 -10.1007 2.48034 -3.31252 -8.67442 2.09683 -3.54299 
-12.1966 3.87092 -2.51106 -10.985 3.57133 -2.88109 -9.50966 3.16141 -3.19466 
-7.8815 2.67984 -3.39648 -12.8307 4.92111 -1.92646 -11.7317 4.66574 -2.32661 
-10.2969 4.2492 -2.70952 -8.61879 3.7161 -3.03009 -6.97315 3.14193 -3.29993 
-13.1755 5.86336 -1.26973 -12.177 5.66973 -1.65802 -10.8899 5.27295 -2.09051 
-9.30999 4.67525 -2.51815 -7.66059 4.02018 -2.9246 -6.10389 3.36382 -3.21957 
-13.2284 6.62544 -0.619564 -12.2518 6.48693 -0.991601 -11.0969 6.17243 -1.42318 
-9.73265 5.60811 -1.89577 -8.23785 4.87963 -2.3768 -6.67524 4.17743 -2.78849 
-5.13022 3.42918 -3.00728 -13.0404 7.1706 0.0434798 -12.0863 7.06222 -0.357739 
-11.0074 6.80911 -0.796377 -9.80352 6.38302 -1.26999 -8.5289 5.7449 -1.76176 
-7.09611 5.03476 -2.21737 -5.54159 4.2984 -2.55893 -4.0381 3.38364 -2.71686 
-11.6083 7.70842 1.00471 -10.5068 7.68208 1.22318 -10.7457 7.51689 0.503326 
-9.33509 7.37453 1.34674 -9.59361 7.38933 0.656874 -9.72073 7.14438 -0.026015 
-8.06286 6.76338 1.39488 -8.29954 7.0331 0.7365 -8.49457 6.90597 0.0755941 
-8.56604 6.66605 -0.571924 -6.78766 5.94141 1.38559 -6.96011 6.41951 0.790675 
-7.14068 6.48789 0.132792 -7.2715 6.30556 -0.522502 -7.3287 6.11988 -1.12266 
-5.51247 5.08475 1.3217 -5.65396 5.61809 0.824582 -5.74906 5.90354 0.211208 
-5.83921 5.84099 -0.456435 -5.90002 5.72053 -1.08118 -5.90582 5.55055 -1.59804 
-4.17523 4.22364 1.22421 -4.2964 4.70219 0.793306 -4.34691 5.10754 0.263514 
[...]
POINT_DATA 1002
FIELD FieldData 4
_paraPhi 1 1002 double
6.2831853072 3.1415926536 6.2831853072 3.1415926536 4.7123889804 4.7123889804 1.5707963268 1.5707963268 3.6951670125 
5.7296109483 2.5880182947 0.5535743589 6.2831853072 6.2831853072 6.2831853072 6.2831853072 3.1415926536 3.1415926536 
3.1415926536 3.1415926536 3.1415926536 6.1053039672 5.898798347 5.6768734901 5.4599499503 5.2659633393 5.1032165617 
4.9713148346 4.8656852733 4.7809517865 0.17788134 0.38438696014 0.60631181711 0.82323535693 1.0172219679 1.1799687454 
1.3118704726 1.4175000338 1.5022335207 6.1892828907 6.1070320098 6.035312792 5.9728339911 5.9183214791 5.8706119594 
5.8286879411 5.7916808611 5.7588591896 0.093902416448 0.17615329733 0.2478725152 0.31035131605 0.36486382811 0.41257334776 
0.45449736604 0.4915044461 0.52432611754 3.3194739936 3.5259796137 3.7479044707 3.9648280105 4.1588146215 4.321561399 
4.4534631262 4.5590926874 4.6438261743 2.9637113136 2.7572056934 2.5352808365 2.3183572967 2.1243706857 1.9616239082 
1.829722181 1.7240926197 1.6393591329 3.23549507 3.3177459509 3.3894651688 3.4519439696 3.5064564817 3.5541660013 
3.5960900196 3.6330970997 3.6659187711 3.0476902371 2.9654393563 2.8937201384 2.8312413375 2.7767288255 2.7290193058 
2.6870952876 2.6500882075 2.617266536 6.2831853072 6.2831853072 6.2831853072 6.2831853072 3.1415926536 3.1415926536 
3.1415926536 3.1415926536 3.1415926536 6.1053039672 5.898798347 5.6768734901 5.4599499503 5.2659633393 5.1032165617 
4.9713148346 4.8656852733 4.7809517865 0.17788134 0.38438696014 0.60631181711 0.82323535693 1.0172219679 1.1799687454 
1.3118704726 1.4175000338 1.5022335207 6.1892828907 6.1070320098 6.035312792 5.9728339911 5.9183214791 5.8706119594 
5.8286879411 5.7916808611 5.7588591896 0.093902416448 0.17615329733 0.2478725152 0.31035131605 0.36486382811 0.41257334776 
0.45449736604 0.4915044461 0.52432611754 3.3194739936 3.5259796137 3.7479044707 3.9648280105 4.1588146215 4.321561399 
4.4534631262 4.5590926874 4.6438261743 2.9637113136 2.7572056934 2.5352808365 2.3183572967 2.1243706857 1.9616239082 
1.829722181 1.7240926197 1.6393591329 3.23549507 3.3177459509 3.3894651688 3.4519439696 3.5064564817 3.5541660013 
3.5960900196 3.6330970997 3.6659187711 3.0476902371 2.9654393563 2.8937201384 2.8312413375 2.7767288255 2.7290193058 
2.6870952876 2.6500882075 2.617266536 4.7123889804 4.7123889804 4.7123889804 4.7123889804 4.7123889804 4.7123889804 
4.7123889804 4.7123889804 4.7123889804 4.6087898617 4.4991390697 4.3857031936 4.2712800401 4.1588146215 4.0509635631 
3.94975894 3.8564636551 3.7716124825 4.8159880991 4.9256388911 5.0390747672 5.1534979207 5.2659633393 5.3738143976 
5.4750190208 5.5683143056 5.6531654782 4.6087898617 4.4991390697 4.3857031936 4.2712800401 4.1588146215 4.0509635631 
3.94975894 3.8564636551 3.7716124825 4.8159880991 4.9256388911 5.0390747672 5.1534979207 5.2659633393 5.3738143976 
5.4750190208 5.5683143056 5.6531654782 1.5707963268 1.5707963268 1.5707963268 1.5707963268 1.5707963268 1.5707963268 
1.5707963268 1.5707963268 1.5707963268 1.6743954455 1.7840462375 1.8974821136 2.0119052671 2.1243706857 2.232221744 
2.3334263672 2.426721652 2.5115728246 1.4671972081 1.3575464161 1.24411054 1.1296873865 1.0172219679 0.90937090954 
0.80816628637 0.71487100155 0.63001982895 1.6743954455 1.7840462375 1.8974821136 2.0119052671 2.1243706857 2.232221744 
2.3334263672 2.426721652 2.5115728246 1.4671972081 1.3575464161 1.24411054 1.1296873865 1.0172219679 0.90937090954 
0.80816628637 0.71487100155 0.63001982895 3.6007720849 3.4966939854 3.3839471039 3.2645756454 3.1415926536 3.0186096618 
2.8992382033 2.7864913217 2.6824132222 5.8240058758 5.9280839753 6.0408308569 6.1602023154 6.2831853072 0.12298299178 
0.2423544503 0.35510133185 0.45917943135 6.0560271438 5.7885595667 5.9702140275 5.5125918794 5.6029703303 5.7885595667 
5.2659633393 5.2659633393 5.2659633393 5.2659633393 5.0674903122 5.0120975802 4.9155579264 4.7123889804 4.1588146215 
4.9155579264 4.8353719722 4.7123889804 4.5092200343 4.1588146215 3.6362183941 4.8004512023 4.7123889804 4.5894059886 
4.4126803806 4.1588146215 3.8218076305 3.4545639333 4.7123889804 4.6243267584 4.5092200343 4.3572876485 4.1588146215 
3.9121860814 3.6362183941 3.368750817 6.0174235957 5.9434319871 5.8263323547 5.8809213739 5.7674481418 5.6279784266 
5.8278025282 5.718968232 5.5891129425 5.4372443565 5.7823484065 5.678536687 5.5575666702 5.4192596322 5.2659633393 
5.743164462 5.6444075337 5.5314983644 5.4046708639 5.2659633393 5.1195510325 5.7091357773 5.6152775188 5.5096229709 
5.3926039573 5.2659633393 5.1329233157 4.9978930058 5.6793730533 5.5901633916 5.4910209005 5.3824597928 5.2659633393 
5.1440684722 5.0201624502 4.8979782167 5.5683143056 5.4750190208 5.4750190208 5.3738143976 5.3738143976 5.3738143976 
5.2659633393 5.2659633393 5.2659633393 5.2659633393 5.1534979207 5.1534979207 5.1534979207 5.1534979207 5.1534979207 
5.0390747672 5.0390747672 5.0390747672 5.0390747672 5.0390747672 5.0390747672 4.9256388911 4.9256388911 4.9256388911 
4.9256388911 4.9256388911 4.9256388911 4.9256388911 4.8159880991 4.8159880991 4.8159880991 4.8159880991 4.8159880991 
4.8159880991 4.8159880991 4.8159880991 4.6087898617 4.6087898617 4.4991390697 4.6087898617 4.4991390697 4.3857031936 
4.6087898617 4.4991390697 4.3857031936 4.2712800401 4.6087898617 4.4991390697 4.3857031936 4.2712800401 4.1588146215 
4.6087898617 4.4991390697 4.3857031936 4.2712800401 4.1588146215 4.0509635631 4.6087898617 4.4991390697 4.3857031936 
4.2712800401 4.1588146215 4.0509635631 3.94975894 4.6087898617 4.4991390697 4.3857031936 4.2712800401 4.1588146215 
4.0509635631 3.94975894 3.8564636551 4.526799744 4.4046155105 4.426884955 4.2807094886 4.2918546451 4.3052269283 
4.1588146215 4.1588146215 4.1588146215 4.1588146215 4.042318168 4.0321740035 4.0201070968 4.0055183285 3.9875336042 
3.9337570603 3.9151549899 3.8932795963 3.8672112905 3.8356650183 3.7967995342 3.8346145692 3.809500442 3.7803704271 
3.7462412737 3.7058097288 3.657329819 3.5984456061 3.7454049075 3.7156421835 3.6816134988 3.6424295543 3.5969754326 
3.5438565869 3.4813459737 3.4073543651 3.5642842451 3.4524645613 3.5233842518 3.3320300872 3.403123212 3.4773852225 
3.20576226 3.2746326772 3.348015857 3.4255060145 3.0774230472 3.1415926536 3.2112816139 3.2864685043 3.3668817272 
2.95115522 3.00855263 3.0719036933 3.1415926536 3.2178377658 3.3005964304 2.8307207459 2.8800620952 2.9351694502 
2.9967168029 3.0653475414 3.1415926536 3.225752376 2.718901062 2.7598010554 2.8058000847 2.8576792927 2.91630358 
2.9825888767 3.0574329311 3.1415926536 3.5642842451 3.5233842518 3.4524645613 3.4773852225 3.403123212 3.3320300872 
3.4255060145 3.348015857 3.2746326772 3.20576226 3.3668817272 3.2864685043 3.2112816139 3.1415926536 3.0774230472 
3.3005964304 3.2178377658 3.1415926536 3.0719036933 3.00855263 2.95115522 3.225752376 3.1415926536 3.0653475414 
2.9967168029 2.9351694502 2.8800620952 2.8307207459 3.1415926536 3.0574329311 2.9825888767 2.91630358 2.8576792927 
2.8058000847 2.7598010554 2.718901062 4.526799744 4.426884955 4.4046155105 4.3052269283 4.2918546451 4.2807094886 
4.1588146215 4.1588146215 4.1588146215 4.1588146215 3.9875336042 4.0055183285 4.0201070968 4.0321740035 4.042318168 
3.7967995342 3.8356650183 3.8672112905 3.8932795963 3.9151549899 3.9337570603 3.5984456061 3.657329819 3.7058097288 
3.7462412737 3.7803704271 3.809500442 3.8346145692 3.4073543651 3.4813459737 3.5438565869 3.5969754326 3.6424295543 
3.6816134988 3.7156421835 3.7454049075 4.7123889804 4.8004512023 4.6243267584 4.9155579264 4.7123889804 4.5092200343 
5.0674903122 4.8353719722 4.5894059886 4.3572876485 5.2659633393 5.0120975802 4.7123889804 4.4126803806 4.1588146215 
5.5125918794 5.2659633393 4.9155579264 4.5092200343 4.1588146215 3.9121860814 5.7885595667 5.6029703303 5.2659633393 
4.7123889804 4.1588146215 3.8218076305 3.6362183941 6.0560271438 5.9702140275 5.7885595667 5.2659633393 4.1588146215 
3.6362183941 3.4545639333 3.368750817 0.22715816343 0.49462574053 0.3129712797 0.77059342779 0.68021497688 0.49462574053 
1.0172219679 1.0172219679 1.0172219679 1.0172219679 1.2156949949 1.271087727 1.3676273807 1.5707963268 2.1243706857 
1.3676273807 1.447813335 1.5707963268 1.7739652728 2.1243706857 2.6469669131 1.4827341049 1.5707963268 1.6937793186 
1.8705049266 2.1243706857 2.4613776767 2.8286213739 1.5707963268 1.6588585487 1.7739652728 1.9258976586 2.1243706857 
2.3709992258 2.6469669131 2.9144344902 1.7563855631 1.8785697967 1.8563003522 2.0024758186 1.9913306621 1.9779583789 
2.1243706857 2.1243706857 2.1243706857 2.1243706857 2.2408671392 2.2510113037 2.2630782103 2.2776669786 2.295651703 
2.3494282469 2.3680303173 2.3899057108 2.4159740166 2.4475202889 2.486385773 2.448570738 2.4736848652 2.5028148801 
2.5369440334 2.5773755784 2.6258554882 2.6847397011 2.5377803997 2.5675431237 2.6015718084 2.6407557529 2.6862098746 
2.7393287203 2.8018393335 2.8758309421 1.6743954455 1.6743954455 1.7840462375 1.6743954455 1.7840462375 1.8974821136 
1.6743954455 1.7840462375 1.8974821136 2.0119052671 1.6743954455 1.7840462375 1.8974821136 2.0119052671 2.1243706857 
1.6743954455 1.7840462375 1.8974821136 2.0119052671 2.1243706857 2.232221744 1.6743954455 1.7840462375 1.8974821136 
2.0119052671 2.1243706857 2.232221744 2.3334263672 1.6743954455 1.7840462375 1.8974821136 2.0119052671 2.1243706857 
2.232221744 2.3334263672 2.426721652 1.4671972081 1.3575464161 1.4671972081 1.24411054 1.3575464161 1.4671972081 
1.1296873865 1.24411054 1.3575464161 1.4671972081 1.0172219679 1.1296873865 1.24411054 1.3575464161 1.4671972081 
0.90937090954 1.0172219679 1.1296873865 1.24411054 1.3575464161 1.4671972081 0.80816628637 0.90937090954 1.0172219679 
1.1296873865 1.24411054 1.3575464161 1.4671972081 0.71487100155 0.80816628637 0.90937090954 1.0172219679 1.1296873865 
1.24411054 1.3575464161 1.4671972081 0.60381225391 0.57404952988 0.69302191562 0.54002084522 0.66790778838 0.79216440667 
0.50083690068 0.63877777351 0.77356233629 0.90072551443 0.45538277901 0.60464862014 0.75168694275 0.89058134991 1.0172219679 
0.40226393329 0.56421707518 0.72561863695 0.87851444325 1.0172219679 1.139116835 0.33975332011 0.51573716537 0.69407236469 
0.86392567495 1.0172219679 1.1502619915 1.2630228569 0.26576171152 0.45685295248 0.6552068806 0.84594095064 1.0172219679 
1.1636342747 1.2852923014 1.3852070904 0.22715816343 0.3129712797 0.49462574053 0.49462574053 0.68021497688 0.77059342779 
1.0172219679 1.0172219679 1.0172219679 1.0172219679 2.1243706857 1.5707963268 1.3676273807 1.271087727 1.2156949949 
2.6469669131 2.1243706857 1.7739652728 1.5707963268 1.447813335 1.3676273807 2.8286213739 2.4613776767 2.1243706857 
1.8705049266 1.6937793186 1.5707963268 1.4827341049 2.9144344902 2.6469669131 2.3709992258 2.1243706857 1.9258976586 
1.7739652728 1.6588585487 1.5707963268 1.7563855631 1.8563003522 1.8785697967 1.9779583789 1.9913306621 2.0024758186 
2.1243706857 2.1243706857 2.1243706857 2.1243706857 2.295651703 2.2776669786 2.2630782103 2.2510113037 2.2408671392 
2.486385773 2.4475202889 2.4159740166 2.3899057108 2.3680303173 2.3494282469 2.6847397011 2.6258554882 2.5773755784 
2.5369440334 2.5028148801 2.4736848652 2.448570738 2.8758309421 2.8018393335 2.7393287203 2.6862098746 2.6407557529 
2.6015718084 2.5675431237 2.5377803997 5.8604937156 5.901393709 5.9723133995 5.9473927383 6.0216547488 6.0927478736 
5.9992719463 6.0767621038 6.1501452836 6.2190157008 6.0578962336 6.1383094565 6.2134963469 0 0.064169606361 
6.1241815303 6.206940195 6.2831853072 0.069688960264 0.13304002361 0.19043743361 6.1990255847 0 0.07624511221 
0.14487585072 0.20642320337 0.26153055843 0.3108719077 0 0.084159722458 0.15900377685 0.22528907359 0.28391336087 
0.3357925689 0.38179159818 0.42269159155 5.8604937156 5.9723133995 5.901393709 6.0927478736 6.0216547488 5.9473927383 
6.2190157008 6.1501452836 6.0767621038 5.9992719463 0.064169606361 0 6.2134963469 6.1383094565 6.0578962336 
0.19043743361 0.13304002361 0.069688960264 6.2831853072 6.206940195 6.1241815303 0.3108719077 0.26153055843 0.20642320337 
0.14487585072 0.07624511221 6.2831853072 6.1990255847 0.42269159155 0.38179159818 0.3357925689 0.28391336087 0.22528907359 
0.15900377685 0.084159722458 0 5.6793730533 5.7091357773 5.5901633916 5.743164462 5.6152775188 5.4910209005 
5.7823484065 5.6444075337 5.5096229709 5.3824597928 5.8278025282 5.678536687 5.5314983644 5.3926039573 5.2659633393 
5.8809213739 5.718968232 5.5575666702 5.4046708639 5.2659633393 5.1440684722 5.9434319871 5.7674481418 5.5891129425 
5.4192596322 5.2659633393 5.1329233157 5.0201624502 6.0174235957 5.8263323547 5.6279784266 5.4372443565 5.2659633393 
5.1195510325 4.9978930058 4.8979782167 1.3852070904 1.2852923014 1.2630228569 1.1636342747 1.1502619915 1.139116835 
1.0172219679 1.0172219679 1.0172219679 1.0172219679 0.84594095064 0.86392567495 0.87851444325 0.89058134991 0.90072551443 
0.6552068806 0.69407236469 0.72561863695 0.75168694275 0.77356233629 0.79216440667 0.45685295248 0.51573716537 0.56421707518 
0.60464862014 0.63877777351 0.66790778838 0.69302191562 0.26576171152 0.33975332011 0.40226393329 0.45538277901 0.50083690068 
0.54002084522 0.57404952988 0.60381225391 
_paraPhiHalf 1 1002 double
0 3.1415926536 0 3.1415926536 1.5707963268 1.5707963268 1.5707963268 1.5707963268 2.5880182947 
0.5535743589 2.5880182947 0.5535743589 0 0 0 0 3.1415926536 3.1415926536 
3.1415926536 3.1415926536 3.1415926536 0.17788134 0.38438696014 0.60631181711 0.82323535693 1.0172219679 1.1799687454 
1.3118704726 1.4175000338 1.5022335207 0.17788134 0.38438696014 0.60631181711 0.82323535693 1.0172219679 1.1799687454 
1.3118704726 1.4175000338 1.5022335207 0.093902416448 0.17615329733 0.2478725152 0.31035131605 0.36486382811 0.41257334776 
0.45449736604 0.4915044461 0.52432611754 0.093902416448 0.17615329733 0.2478725152 0.31035131605 0.36486382811 0.41257334776 
0.45449736604 0.4915044461 0.52432611754 2.9637113136 2.7572056934 2.5352808365 2.3183572967 2.1243706857 1.9616239082 
1.829722181 1.7240926197 1.6393591329 2.9637113136 2.7572056934 2.5352808365 2.3183572967 2.1243706857 1.9616239082 
1.829722181 1.7240926197 1.6393591329 3.0476902371 2.9654393563 2.8937201384 2.8312413375 2.7767288255 2.7290193058 
2.6870952876 2.6500882075 2.617266536 3.0476902371 2.9654393563 2.8937201384 2.8312413375 2.7767288255 2.7290193058 
2.6870952876 2.6500882075 2.617266536 0 0 0 0 3.1415926536 3.1415926536 
3.1415926536 3.1415926536 3.1415926536 0.17788134 0.38438696014 0.60631181711 0.82323535693 1.0172219679 1.1799687454 
1.3118704726 1.4175000338 1.5022335207 0.17788134 0.38438696014 0.60631181711 0.82323535693 1.0172219679 1.1799687454 
1.3118704726 1.4175000338 1.5022335207 0.093902416448 0.17615329733 0.2478725152 0.31035131605 0.36486382811 0.41257334776 
0.45449736604 0.4915044461 0.52432611754 0.093902416448 0.17615329733 0.2478725152 0.31035131605 0.36486382811 0.41257334776 
0.45449736604 0.4915044461 0.52432611754 2.9637113136 2.7572056934 2.5352808365 2.3183572967 2.1243706857 1.9616239082 
1.829722181 1.7240926197 1.6393591329 2.9637113136 2.7572056934 2.5352808365 2.3183572967 2.1243706857 1.9616239082 
1.829722181 1.7240926197 1.6393591329 3.0476902371 2.9654393563 2.8937201384 2.8312413375 2.7767288255 2.7290193058 
2.6870952876 2.6500882075 2.617266536 3.0476902371 2.9654393563 2.8937201384 2.8312413375 2.7767288255 2.7290193058 
2.6870952876 2.6500882075 2.617266536 1.5707963268 1.5707963268 1.5707963268 1.5707963268 1.5707963268 1.5707963268 
1.5707963268 1.5707963268 1.5707963268 1.6743954455 1.7840462375 1.8974821136 2.0119052671 2.1243706857 2.232221744 
2.3334263672 2.426721652 2.5115728246 1.4671972081 1.3575464161 1.24411054 1.1296873865 1.0172219679 0.90937090954 
0.80816628637 0.71487100155 0.63001982895 1.6743954455 1.7840462375 1.8974821136 2.0119052671 2.1243706857 2.232221744 
2.3334263672 2.426721652 2.5115728246 1.4671972081 1.3575464161 1.24411054 1.1296873865 1.0172219679 0.90937090954 
0.80816628637 0.71487100155 0.63001982895 1.5707963268 1.5707963268 1.5707963268 1.5707963268 1.5707963268 1.5707963268 
1.5707963268 1.5707963268 1.5707963268 1.6743954455 1.7840462375 1.8974821136 2.0119052671 2.1243706857 2.232221744 
2.3334263672 2.426721652 2.5115728246 1.4671972081 1.3575464161 1.24411054 1.1296873865 1.0172219679 0.90937090954 
0.80816628637 0.71487100155 0.63001982895 1.6743954455 1.7840462375 1.8974821136 2.0119052671 2.1243706857 2.232221744 
2.3334263672 2.426721652 2.5115728246 1.4671972081 1.3575464161 1.24411054 1.1296873865 1.0172219679 0.90937090954 
0.80816628637 0.71487100155 0.63001982895 2.6824132222 2.7864913217 2.8992382033 3.0186096618 3.1415926536 3.0186096618 
2.8992382033 2.7864913217 2.6824132222 0.45917943135 0.35510133185 0.2423544503 0.12298299178 0 0.12298299178 
0.2423544503 0.35510133185 0.45917943135 0.22715816343 0.49462574053 0.3129712797 0.77059342779 0.68021497688 0.49462574053 
1.0172219679 1.0172219679 1.0172219679 1.0172219679 1.2156949949 1.271087727 1.3676273807 1.5707963268 2.1243706857 
1.3676273807 1.447813335 1.5707963268 1.7739652728 2.1243706857 2.6469669131 1.4827341049 1.5707963268 1.6937793186 
1.8705049266 2.1243706857 2.4613776767 2.8286213739 1.5707963268 1.6588585487 1.7739652728 1.9258976586 2.1243706857 
2.3709992258 2.6469669131 2.9144344902 0.26576171152 0.33975332011 0.45685295248 0.40226393329 0.51573716537 0.6552068806 
0.45538277901 0.56421707518 0.69407236469 0.84594095064 0.50083690068 0.60464862014 0.72561863695 0.86392567495 1.0172219679 
0.54002084522 0.63877777351 0.75168694275 0.87851444325 1.0172219679 1.1636342747 0.57404952988 0.66790778838 0.77356233629 
0.89058134991 1.0172219679 1.1502619915 1.2852923014 0.60381225391 0.69302191562 0.79216440667 0.90072551443 1.0172219679 
1.139116835 1.2630228569 1.3852070904 0.71487100155 0.80816628637 0.80816628637 0.90937090954 0.90937090954 0.90937090954 
1.0172219679 1.0172219679 1.0172219679 1.0172219679 1.1296873865 1.1296873865 1.1296873865 1.1296873865 1.1296873865 
1.24411054 1.24411054 1.24411054 1.24411054 1.24411054 1.24411054 1.3575464161 1.3575464161 1.3575464161 
1.3575464161 1.3575464161 1.3575464161 1.3575464161 1.4671972081 1.4671972081 1.4671972081 1.4671972081 1.4671972081 
1.4671972081 1.4671972081 1.4671972081 1.6743954455 1.6743954455 1.7840462375 1.6743954455 1.7840462375 1.8974821136 
1.6743954455 1.7840462375 1.8974821136 2.0119052671 1.6743954455 1.7840462375 1.8974821136 2.0119052671 2.1243706857 
1.6743954455 1.7840462375 1.8974821136 2.0119052671 2.1243706857 2.232221744 1.6743954455 1.7840462375 1.8974821136 
2.0119052671 2.1243706857 2.232221744 2.3334263672 1.6743954455 1.7840462375 1.8974821136 2.0119052671 2.1243706857 
2.232221744 2.3334263672 2.426721652 1.7563855631 1.8785697967 1.8563003522 2.0024758186 1.9913306621 1.9779583789 
2.1243706857 2.1243706857 2.1243706857 2.1243706857 2.2408671392 2.2510113037 2.2630782103 2.2776669786 2.295651703 
2.3494282469 2.3680303173 2.3899057108 2.4159740166 2.4475202889 2.486385773 2.448570738 2.4736848652 2.5028148801 
2.5369440334 2.5773755784 2.6258554882 2.6847397011 2.5377803997 2.5675431237 2.6015718084 2.6407557529 2.6862098746 
2.7393287203 2.8018393335 2.8758309421 2.718901062 2.8307207459 2.7598010554 2.95115522 2.8800620952 2.8058000847 
3.0774230472 3.00855263 2.9351694502 2.8576792927 3.0774230472 3.1415926536 3.0719036933 2.9967168029 2.91630358 
2.95115522 3.00855263 3.0719036933 3.1415926536 3.0653475414 2.9825888767 2.8307207459 2.8800620952 2.9351694502 
2.9967168029 3.0653475414 3.1415926536 3.0574329311 2.718901062 2.7598010554 2.8058000847 2.8576792927 2.91630358 
2.9825888767 3.0574329311 3.1415926536 2.718901062 2.7598010554 2.8307207459 2.8058000847 2.8800620952 2.95115522 
2.8576792927 2.9351694502 3.00855263 3.0774230472 2.91630358 2.9967168029 3.0719036933 3.1415926536 3.0774230472 
2.9825888767 3.0653475414 3.1415926536 3.0719036933 3.00855263 2.95115522 3.0574329311 3.1415926536 3.0653475414 