# vtk DataFile Version 5.1
vtk output
ASCII
DATASET POLYDATA
POINTS 1002 float
-8.88478 -0.289823 -3.53912 9.06537 -0.613937 -3.30957 -8.20507 0.409312 3.85645 
8.15725 -0.67599 2.37887 -1.17701 1.685 -2.06816 -1.46575 2.34161 1.69525 
-0.527153 -6.18632 -2.10513 0.171667 -6.75358 2.40186 15.31 9.21477 1.05289 
-13.8642 7.81489 0.725065 14.631 -2.56493 -0.0497051 -13.3951 -3.69153 -0.237254 
-7.70879 -0.616605 -3.52644 -6.31793 -0.977187 -3.53716 -4.66523 -1.36091 -3.52205 
-2.6807 -1.72017 -3.40269 -0.36802 -1.96774 -3.26422 2.0391 -2.04122 -3.26616 
4.2383 -1.91453 -3.35955 6.12594 -1.58018 -3.40629 7.72725 -1.10711 -3.38281 
-8.66118 0.177291 -3.59258 -8.36453 0.684336 -3.6011 -7.87511 1.22506 -3.52195 
-7.18937 1.6983 -3.39267 -6.40501 2.04025 -3.31599 -5.48319 2.3185 -3.28325 
-4.42043 2.4635 -3.13858 -3.35476 2.31016 -2.80596 -2.29576 1.96182 -2.40097 
-8.39552 -0.960641 -3.45697 -7.79574 -1.69136 -3.37594 -7.03011 -2.46024 -3.29382 
-6.14055 -3.19942 -3.1842 -5.19427 -3.87852 -3.04439 -4.19604 -4.50937 -2.87239 
-3.19074 -5.05584 -2.67371 -2.24319 -5.49373 -2.48275 -1.35549 -5.86333 -2.30237 
-9.86892 0.362199 -3.57367 -10.9112 1.1565 -3.5161 -11.9681 2.10544 -3.31531 
-12.9643 3.22565 -2.98287 -13.8167 4.47063 -2.58179 -14.429 5.59738 -2.13371 
-14.7016 6.4005 -1.54868 -14.6201 6.98128 -0.78484 -14.294 7.47308 0.0244855 
-9.70914 -0.41288 -3.50673 -10.5405 -0.606872 -3.42467 -11.3021 -0.860427 -3.23596 
-11.9792 -1.15882 -2.93885 -12.5701 -1.51889 -2.59827 -13.0215 -1.98082 -2.26163 
-13.3386 -2.53324 -1.88571 -13.5308 -3.06433 -1.39927 -13.5419 -3.45646 -0.818936 
8.77087 -0.215758 -3.33102 8.35875 0.179747 -3.30418 7.78437 0.577927 -3.20919 
7.02591 0.914379 -3.06586 6.11829 1.11302 -2.89843 5.02211 1.20795 -2.6977 
3.61315 1.22309 -2.47074 1.93632 1.17621 -2.27153 0.255 1.26511 -2.1417 
8.48505 -1.34222 -3.32203 7.74035 -2.13471 -3.33226 6.82913 -2.93882 -3.3409 
5.79056 -3.65649 -3.28182 4.68169 -4.26861 -3.11248 3.54427 -4.79935 -2.87709 
2.41268 -5.22328 -2.64889 1.33571 -5.56838 -2.4628 0.352969 -5.89562 -2.29592 
10.1408 0.185162 -3.17971 11.2394 1.16097 -2.92546 12.3656 2.32695 -2.59457 
13.4619 3.61969 -2.24653 14.3974 4.95531 -1.8684 15.102 6.29836 -1.49053 
15.5744 7.56258 -1.09721 15.7556 8.55455 -0.514204 15.6253 9.11194 0.279902 
9.97223 -0.600572 -3.20855 10.8707 -0.624772 -3.05413 11.7462 -0.628494 -2.8278 
12.6131 -0.644461 -2.5359 13.4408 -0.767204 -2.19258 14.1091 -0.978275 -1.80997 
14.5584 -1.25107 -1.417 14.817 -1.64069 -1.00432 14.856 -2.1178 -0.536435 
-7.08055 -0.0478056 3.89444 -5.74659 -0.516821 3.91561 -4.159 -0.979161 3.89975 
-2.36991 -1.41775 3.77094 -0.451623 -1.76714 3.51451 1.54503 -1.91377 3.16983 
3.49957 -1.80646 2.80734 5.27276 -1.51185 2.54904 6.82025 -1.11826 2.43343 
-7.86016 0.817483 3.75735 -7.42307 1.2335 3.67758 -6.86732 1.6116 3.58047 
-6.21277 1.94526 3.42613 -5.49117 2.22323 3.22109 -4.71773 2.39509 2.96661 
-3.90504 2.46908 2.67641 -3.07773 2.49921 2.38108 -2.26214 2.46813 2.06192 
-7.82318 -0.275156 3.99258 -7.29667 -1.02256 4.07325 -6.53883 -1.89793 4.03655 
-5.53146 -2.89729 3.93085 -4.40366 -3.8772 3.84439 -3.31108 -4.74252 3.70205 
-2.31605 -5.47757 3.40754 -1.41863 -6.03508 3.04326 -0.59518 -6.43153 2.7084 
-9.07639 1.13194 3.69439 -9.97763 1.91164 3.44956 -10.8522 2.73998 3.1688 
-11.647 3.66665 2.92877 -12.3687 4.66462 2.71014 -12.9991 5.594 2.43925 
-13.4725 6.40793 2.12555 -13.7637 7.11265 1.76663 -13.8869 7.60913 1.29671 
-9.11012 0.435535 3.84747 -10.1581 0.413091 3.69113 -11.285 0.243711 3.34765 
-12.3354 -0.148121 2.90173 -13.1802 -0.706123 2.41601 -13.7409 -1.31991 1.88472 
-13.9724 -1.97039 1.33757 -13.9202 -2.65085 0.803525 -13.6979 -3.26046 0.275857 
7.7063 -0.348106 2.36117 7.11409 -0.0439588 2.32673 6.35777 0.20962 2.26461 
5.44929 0.379909 2.16585 4.36833 0.466089 2.01289 3.11395 0.559946 1.84617 
1.8187 0.782713 1.76544 0.610856 1.18457 1.77559 -0.488786 1.73225 1.77279 
7.75673 -1.29325 2.45808 7.27609 -1.92795 2.59046 6.6731 -2.63802 2.70588 
5.96305 -3.43032 2.74968 5.19053 -4.20574 2.75314 4.28849 -4.91613 2.74049 
3.24556 -5.55467 2.68695 2.19901 -6.06606 2.59757 1.19068 -6.44673 2.50316 
9.18841 0.0683759 2.32697 10.2739 0.962272 2.28418 11.3578 1.96939 2.2623 
12.4194 3.11803 2.30492 13.469 4.41388 2.40667 14.401 5.72717 2.48571 
15.0373 6.95263 2.45328 15.3386 8.04132 2.2219 15.3987 8.84397 1.73349 
9.17868 -0.611277 2.34126 10.1966 -0.585059 2.3044 11.1812 -0.619594 2.31864 
12.1186 -0.77023 2.29558 12.9632 -1.08958 2.09509 13.643 -1.50096 1.79684 
14.1395 -1.87343 1.49808 14.4765 -2.17627 1.09401 14.6501 -2.41099 0.540131 
-1.2354 2.00829 -1.87121 -1.31302 2.3927 -1.64943 -1.47224 2.65057 -1.33504 
-1.63067 2.79459 -0.938537 -1.6462 2.98719 -0.508525 -1.57372 3.11492 -0.059196 
-1.55029 3.01317 0.409567 -1.55879 2.80162 0.88914 -1.52969 2.58901 1.33653 
1.01932 1.4096 -1.85942 3.5909 1.8585 -1.76837 6.04896 2.95602 -1.79082 
8.00945 4.29086 -1.76371 9.65947 5.55484 -1.50686 11.3246 6.66794 -1.04605 
12.8237 7.65935 -0.537055 13.8976 8.52976 -0.0218734 14.6679 9.10952 0.524363 
-3.01527 2.66101 -2.16105 -4.57097 3.87628 -2.13434 -6.03231 4.83703 -1.92435 
-7.5395 5.53256 -1.58398 -8.94144 6.26959 -1.1874 -10.1627 7.02088 -0.776967 
-11.2992 7.59878 -0.391757 -12.3322 7.95117 -0.0231603 -13.1897 8.02934 0.359785 
0.065586 1.836 1.35215 2.02683 1.61047 1.02426 4.37271 1.9469 0.815715 
6.83008 2.90114 0.757283 9.11448 4.28737 0.856461 11.0974 5.81685 1.10249 
12.6589 7.20614 1.36427 13.7553 8.28754 1.47465 14.5732 8.97744 1.36132 
-2.84152 3.13473 1.80154 -4.18814 3.9847 1.87657 -5.5611 4.80249 1.92688 
-6.96385 5.65828 1.94824 -8.27567 6.56549 1.95925 -9.49839 7.33615 1.93444 
-10.7514 7.86324 1.77712 -11.9619 8.15124 1.4809 -12.9943 8.1373 1.12156 
-0.558518 -6.5092 -1.78775 -0.624185 -6.79985 -1.38347 -0.737403 -7.11929 -0.96005 
-0.829736 -7.46869 -0.488229 -0.819387 -7.69837 0.0989253 -0.738824 -7.73399 0.703111 
-0.609774 -7.63929 1.21934 -0.372831 -7.43075 1.68036 -0.0681091 -7.11468 2.09048 
0.854104 -6.32046 -2.03213 2.3704 -6.42653 -1.99442 3.96578 -6.50673 -2.01738 
5.57923 -6.55409 -2.07472 7.27918 -6.33734 -2.07243 9.21981 -5.60747 -1.89121 
11.2384 -4.61419 -1.50017 12.8803 -3.78293 -1.00486 13.9561 -3.15259 -0.513484 
-1.91034 -6.24521 -2.01463 -3.40971 -6.26781 -1.90082 -4.97244 -6.24815 -1.76314 
-6.50106 -6.1802 -1.61175 -7.9437 -6.04317 -1.46783 -9.32291 -5.78789 -1.30529 
-10.6038 -5.38893 -1.06359 -11.7022 -4.89679 -0.769731 -12.6166 -4.34164 -0.491962 
1.66104 -6.89571 2.17263 3.31033 -6.99409 1.93934 4.97173 -6.9682 1.69475 
6.60141 -6.83015 1.46039 8.24192 -6.48399 1.21173 9.85696 -5.77028 0.893444 
11.3577 -4.86244 0.566987 12.6907 -4.044 0.322879 13.8004 -3.3142 0.135596 
-1.36178 -6.86975 2.47606 -2.97866 -7.00479 2.48539 -4.67156 -7.05268 2.33831 
-6.44027 -6.94153 2.05924 -8.22922 -6.69807 1.74777 -9.86317 -6.29005 1.4315 
-11.1224 -5.6787 1.07095 -12.0095 -4.97748 0.645034 -12.7297 -4.31086 0.18901 
16.1357 8.85079 1.09012 16.8265 7.89697 1.05052 17.1593 6.54433 0.966552 
17.2056 5.10306 0.911848 17.1095 3.66062 0.87851 16.8471 2.18536 0.765501 
16.4519 0.776232 0.553477 15.9695 -0.490806 0.324368 15.3574 -1.6175 0.12479 
-14.7399 7.19485 0.636602 -15.5335 6.33308 0.473715 -16.0035 5.28365 0.254708 
-16.0761 4.03831 0.000188939 -15.9983 2.62153 -0.25305 -15.9272 1.15593 -0.412391 
-15.6775 -0.273783 -0.430245 -15.0843 -1.61505 -0.3769 -14.2561 -2.77167 -0.315052 
-7.36893 -0.193877 -3.60371 -6.88971 0.267892 -3.62395 -5.80924 -0.603147 -3.61058 
-6.1952 0.741216 -3.5112 -5.10301 -0.204455 -3.59593 -3.92138 -1.04459 -3.53065 
-5.39437 1.10549 -3.32983 -4.21909 0.169031 -3.4125 -2.94643 -0.720244 -3.45328 
-1.63183 -1.43096 -3.34532 -4.51733 1.34634 -3.22933 -3.24804 0.417169 -3.1622 
-1.80283 -0.413951 -3.24227 -0.366749 -1.0996 -3.27815 0.937792 -1.61527 -3.23224 
-3.41845 1.52063 -3.15749 -2.07146 0.593135 -3.00372 -0.498022 -0.146215 -2.98695 
1.03022 -0.688331 -3.14412 2.34307 -1.13791 -3.24604 3.40708 -1.54349 -3.29206 
-2.17736 1.53269 -2.9182 -0.674929 0.786818 -2.86272 0.979348 0.189776 -2.8085 
2.5001 -0.182423 -2.95144 3.7468 -0.487543 -3.18446 4.74374 -0.861983 -3.32915 
5.52671 -1.24263 -3.38887 -0.956038 1.37529 -2.51744 0.692053 0.972921 -2.59667 
2.40381 0.670387 -2.66348 3.88284 0.457565 -2.80093 5.04331 0.283709 -3.02585 
5.97591 -0.00382558 -3.2421 6.72629 -0.392241 -3.36901 7.3002 -0.763842 -3.40382 
-9.693 0.945615 -3.57267 -10.7371 1.87855 -3.42854 -9.40068 1.58015 -3.49791 
-11.7386 2.96014 -3.1454 -10.394 2.63958 -3.28801 -8.88994 2.20619 -3.37681 
-12.6513 4.1619 -2.7724 -11.3044 3.80113 -2.97817 -9.85565 3.32193 -3.16165 
-8.1758 2.68841 -3.27711 -13.3645 5.35382 -2.34515 -12.0689 4.96784 -2.57567 
-10.6798 4.46982 -2.82474 -9.07121 3.77603 -3.02654 -7.25599 3.03148 -3.20001 
-13.7287 6.31703 -1.80919 -12.5341 6.00456 -2.05027 -11.2169 5.52523 -2.33629 
-9.72141 4.82914 -2.58946 -7.94741 4.04219 -2.82733 -6.14576 3.29578 -3.06514 
-13.736 7.02652 -1.1163 -12.6508 6.82581 -1.39084 -11.4141 6.41237 -1.70454 
-10.0464 5.74849 -2.03119 -8.4394 4.94228 -2.31293 -6.69902 4.18592 -2.59934 
-5.05224 3.3314 -2.81243 -13.5173 7.6036 -0.351377 -12.5483 7.46824 -0.684785 
-11.4063 7.10023 -1.01901 -10.154 6.48859 -1.39975 -8.75478 5.69301 -1.77005 
-7.17423 4.93671 -2.09918 -5.59803 4.13586 -2.36942 -4.05184 3.05833 -2.47922 
-12.2146 8.25102 0.725604 -11.0309 8.14028 1.04444 -11.2372 8.00619 0.284012 
-9.71924 7.74426 1.28653 -9.96126 7.75568 0.530865 -10.1415 7.45949 -0.152927 
-8.45205 7.10348 1.39689 -8.63791 7.29472 0.698637 -8.86705 7.09553 0.0286763 
-8.99419 6.71651 -0.582698 -7.15847 6.24116 1.4337 -7.29223 6.65184 0.791067 
-7.4601 6.64843 0.157142 -7.62444 6.32858 -0.421436 -7.66067 5.95067 -1.01765 
-5.73157 5.32179 1.47309 -5.82465 5.82637 0.882848 -5.90014 6.06822 0.264336 
-5.99649 5.90848 -0.301026 -6.08563 5.60415 -0.869173 -6.11363 5.2766 -1.4447 
-4.31113 4.41953 1.47504 -4.35988 4.86335 0.953588 -4.38089 5.20968 0.370333 
[...]
POINT_DATA 1002
FIELD FieldData 4
_paraPhi 1 1002 double
6.2831853072 3.1415926536 6.2831853072 3.1415926536 4.7123889804 4.7123889804 1.5707963268 1.5707963268 3.6951670125 
5.7296109483 2.5880182947 0.5535743589 6.2831853072 6.2831853072 6.2831853072 6.2831853072 3.1415926536 3.1415926536 
3.1415926536 3.1415926536 3.1415926536 6.1053039672 5.898798347 5.6768734901 5.4599499503 5.2659633393 5.1032165617 
4.9713148346 4.8656852733 4.7809517865 0.17788134 0.38438696014 0.60631181711 0.82323535693 1.0172219679 1.1799687454 
1.3118704726 1.4175000338 1.5022335207 6.1892828907 6.1070320098 6.035312792 5.9728339911 5.9183214791 5.8706119594 
5.8286879411 5.7916808611 5.7588591896 0.093902416448 0.17615329733 0.2478725152 0.31035131605 0.36486382811 0.41257334776 
0.45449736604 0.4915044461 0.52432611754 3.3194739936 3.5259796137 3.7479044707 3.9648280105 4.1588146215 4.321561399 
4.4534631262 4.5590926874 4.6438261743 2.9637113136 2.7572056934 2.5352808365 2.3183572967 2.1243706857 1.9616239082 
1.829722181 1.7240926197 1.6393591329 3.23549507 3.3177459509 3.3894651688 3.4519439696 3.5064564817 3.5541660013 
3.5960900196 3.6330970997 3.6659187711 3.0476902371 2.9654393563 2.8937201384 2.8312413375 2.7767288255 2.7290193058 
2.6870952876 2.6500882075 2.617266536 6.2831853072 6.2831853072 6.2831853072 6.2831853072 3.1415926536 3.1415926536 
3.1415926536 3.1415926536 3.1415926536 6.1053039672 5.898798347 5.6768734901 5.4599499503 5.2659633393 5.1032165617 
4.9713148346 4.8656852733 4.7809517865 0.17788134 0.38438696014 0.60631181711 0.82323535693 1.0172219679 1.1799687454 
1.3118704726 1.4175000338 1.5022335207 6.1892828907 6.1070320098 6.035312792 5.9728339911 5.9183214791 5.8706119594 
5.8286879411 5.7916808611 5.7588591896 0.093902416448 0.17615329733 0.2478725152 0.31035131605 0.36486382811 0.41257334776 
0.45449736604 0.4915044461 0.52432611754 3.3194739936 3.5259796137 3.7479044707 3.9648280105 4.1588146215 4.321561399 
4.4534631262 4.5590926874 4.6438261743 2.9637113136 2.7572056934 2.5352808365 2.3183572967 2.1243706857 1.9616239082 
1.829722181 1.7240926197 1.6393591329 3.23549507 3.3177459509 3.3894651688 3.4519439696 3.5064564817 3.5541660013 
3.5960900196 3.6330970997 3.6659187711 3.0476902371 2.9654393563 2.8937201384 2.8312413375 2.7767288255 2.7290193058 
2.6870952876 2.6500882075 2.617266536 4.7123889804 4.7123889804 4.7123889804 4.7123889804 4.7123889804 4.7123889804 
4.7123889804 4.7123889804 4.7123889804 4.6087898617 4.4991390697 4.3857031936 4.2712800401 4.1588146215 4.0509635631 
3.94975894 3.8564636551 3.7716124825 4.8159880991 4.9256388911 5.0390747672 5.1534979207 5.2659633393 5.3738143976 
5.4750190208 5.5683143056 5.6531654782 4.6087898617 4.4991390697 4.3857031936 4.2712800401 4.1588146215 4.0509635631 
3.94975894 3.8564636551 3.7716124825 4.8159880991 4.9256388911 5.0390747672 5.1534979207 5.2659633393 5.3738143976 
5.4750190208 5.5683143056 5.6531654782 1.5707963268 1.5707963268 1.5707963268 1.5707963268 1.5707963268 1.5707963268 
1.5707963268 1.5707963268 1.5707963268 1.6743954455 1.7840462375 1.8974821136 2.0119052671 2.1243706857 2.232221744 
2.3334263672 2.426721652 2.5115728246 1.4671972081 1.3575464161 1.24411054 1.1296873865 1.0172219679 0.90937090954 
0.80816628637 0.71487100155 0.63001982895 1.6743954455 1.7840462375 1.8974821136 2.0119052671 2.1243706857 2.232221744 
2.3334263672 2.426721652 2.5115728246 1.4671972081 1.3575464161 1.24411054 1.1296873865 1.0172219679 0.90937090954 
0.80816628637 0.71487100155 0.63001982895 3.6007720849 3.4966939854 3.3839471039 3.2645756454 3.1415926536 3.0186096618 
2.8992382033 2.7864913217 2.6824132222 5.8240058758 5.9280839753 6.0408308569 6.1602023154 6.2831853072 0.12298299178 
0.2423544503 0.35510133185 0.45917943135 6.0560271438 5.7885595667 5.9702140275 5.5125918794 5.6029703303 5.7885595667 
5.2659633393 5.2659633393 5.2659633393 5.2659633393 5.0674903122 5.0120975802 4.9155579264 4.7123889804 4.1588146215 
4.9155579264 4.8353719722 4.7123889804 4.5092200343 4.1588146215 3.6362183941 4.8004512023 4.7123889804 4.5894059886 
4.4126803806 4.1588146215 3.8218076305 3.4545639333 4.7123889804 4.6243267584 4.5092200343 4.3572876485 4.1588146215 
3.9121860814 3.6362183941 3.368750817 6.0174235957 5.9434319871 5.8263323547 5.8809213739 5.7674481418 5.6279784266 
5.8278025282 5.718968232 5.5891129425 5.4372443565 5.7823484065 5.678536687 5.5575666702 5.4192596322 5.2659633393 
5.743164462 5.6444075337 5.5314983644 5.4046708639 5.2659633393 5.1195510325 5.7091357773 5.6152775188 5.5096229709 
5.3926039573 5.2659633393 5.1329233157 4.9978930058 5.6793730533 5.5901633916 5.4910209005 5.3824597928 5.2659633393 
5.1440684722 5.0201624502 4.8979782167 5.5683143056 5.4750190208 5.4750190208 5.3738143976 5.3738143976 5.3738143976 
5.2659633393 5.2659633393 5.2659633393 5.2659633393 5.1534979207 5.1534979207 5.1534979207 5.1534979207 5.1534979207 
5.0390747672 5.0390747672 5.0390747672 5.0390747672 5.0390747672 5.0390747672 4.9256388911 4.9256388911 4.9256388911 
4.9256388911 4.9256388911 4.9256388911 4.9256388911 4.8159880991 4.8159880991 4.8159880991 4.8159880991 4.8159880991 
4.8159880991 4.8159880991 4.8159880991 4.6087898617 4.6087898617 4.4991390697 4.6087898617 4.4991390697 4.3857031936 
4.6087898617 4.4991390697 4.3857031936 4.2712800401 4.6087898617 4.4991390697 4.3857031936 4.2712800401 4.1588146215 
4.6087898617 4.4991390697 4.3857031936 4.2712800401 4.1588146215 4.0509635631 4.6087898617 4.4991390697 4.3857031936 
4.2712800401 4.1588146215 4.0509635631 3.94975894 4.6087898617 4.4991390697 4.3857031936 4.2712800401 4.1588146215 
4.0509635631 3.94975894 3.8564636551 4.526799744 4.4046155105 4.426884955 4.2807094886 4.2918546451 4.3052269283 
4.1588146215 4.1588146215 4.1588146215 4.1588146215 4.042318168 4.0321740035 4.0201070968 4.0055183285 3.9875336042 
3.9337570603 3.9151549899 3.8932795963 3.8672112905 3.8356650183 3.7967995342 3.8346145692 3.809500442 3.7803704271 
3.7462412737 3.7058097288 3.657329819 3.5984456061 3.7454049075 3.7156421835 3.6816134988 3.6424295543 3.5969754326 
3.5438565869 3.4813459737 3.4073543651 3.5642842451 3.4524645613 3.5233842518 3.3320300872 3.403123212 3.4773852225 
3.20576226 3.2746326772 3.348015857 3.4255060145 3.0774230472 3.1415926536 3.2112816139 3.2864685043 3.3668817272 
2.95115522 3.00855263 3.0719036933 3.1415926536 3.2178377658 3.3005964304 2.8307207459 2.8800620952 2.9351694502 
2.9967168029 3.0653475414 3.1415926536 3.225752376 2.718901062 2.7598010554 2.8058000847 2.8576792927 2.91630358 
2.9825888767 3.0574329311 3.1415926536 3.5642842451 3.5233842518 3.4524645613 3.4773852225 3.403123212 3.3320300872 
3.4255060145 3.348015857 3.2746326772 3.20576226 3.3668817272 3.2864685043 3.2112816139 3.1415926536 3.0774230472 
3.3005964304 3.2178377658 3.1415926536 3.0719036933 3.00855263 2.95115522 3.225752376 3.1415926536 3.0653475414 
2.9967168029 2.9351694502 2.8800620952 2.8307207459 3.1415926536 3.0574329311 2.9825888767 2.91630358 2.8576792927 
2.8058000847 2.7598010554 2.718901062 4.526799744 4.426884955 4.4046155105 4.3052269283 4.2918546451 4.2807094886 
4.1588146215 4.1588146215 4.1588146215 4.1588146215 3.9875336042 4.0055183285 4.0201070968 4.0321740035 4.042318168 
3.7967995342 3.8356650183 3.8672112905 3.8932795963 3.9151549899 3.9337570603 3.5984456061 3.657329819 3.7058097288 
3.7462412737 3.7803704271 3.809500442 3.8346145692 3.4073543651 3.4813459737 3.5438565869 3.5969754326 3.6424295543 
3.6816134988 3.7156421835 3.7454049075 4.7123889804 4.8004512023 4.6243267584 4.9155579264 4.7123889804 4.5092200343 
5.0674903122 4.8353719722 4.5894059886 4.3572876485 5.2659633393 5.0120975802 4.7123889804 4.4126803806 4.1588146215 
5.5125918794 5.2659633393 4.9155579264 4.5092200343 4.1588146215 3.9121860814 5.7885595667 5.6029703303 5.2659633393 
4.7123889804 4.1588146215 3.8218076305 3.6362183941 6.0560271438 5.9702140275 5.7885595667 5.2659633393 4.1588146215 
3.6362183941 3.4545639333 3.368750817 0.22715816343 0.49462574053 0.3129712797 0.77059342779 0.68021497688 0.49462574053 
1.0172219679 1.0172219679 1.0172219679 1.0172219679 1.2156949949 1.271087727 1.3676273807 1.5707963268 2.1243706857 
1.3676273807 1.447813335 1.5707963268 1.7739652728 2.1243706857 2.6469669131 1.4827341049 1.5707963268 1.6937793186 
1.8705049266 2.1243706857 2.4613776767 2.8286213739 1.5707963268 1.6588585487 1.7739652728 1.9258976586 2.1243706857 
2.3709992258 2.6469669131 2.9144344902 1.7563855631 1.8785697967 1.8563003522 2.0024758186 1.9913306621 1.9779583789 
2.1243706857 2.1243706857 2.1243706857 2.1243706857 2.2408671392 2.2510113037 2.2630782103 2.2776669786 2.295651703 
2.3494282469 2.3680303173 2.3899057108 2.4159740166 2.4475202889 2.486385773 2.448570738 2.4736848652 2.5028148801 
2.5369440334 2.5773755784 2.6258554882 2.6847397011 2.5377803997 2.5675431237 2.6015718084 2.6407557529 2.6862098746 
2.7393287203 2.8018393335 2.8758309421 1.6743954455 1.6743954455 1.7840462375 1.6743954455 1.7840462375 1.8974821136 
1.6743954455 1.7840462375 1.8974821136 2.0119052671 1.6743954455 1.7840462375 1.8974821136 2.0119052671 2.1243706857 
1.6743954455 1.7840462375 1.8974821136 2.0119052671 2.1243706857 2.232221744 1.6743954455 1.7840462375 1.8974821136 
2.0119052671 2.1243706857 2.232221744 2.3334263672 1.6743954455 1.7840462375 1.8974821136 2.0119052671 2.1243706857 
2.232221744 2.3334263672 2.426721652 1.4671972081 1.3575464161 1.4671972081 1.24411054 1.3575464161 1.4671972081 
1.1296873865 1.24411054 1.3575464161 1.4671972081 1.0172219679 1.1296873865 1.24411054 1.3575464161 1.4671972081 
0.90937090954 1.0172219679 1.1296873865 1.24411054 1.3575464161 1.4671972081 0.80816628637 0.90937090954 1.0172219679 
1.1296873865 1.24411054 1.3575464161 1.4671972081 0.71487100155 0.80816628637 0.90937090954 1.0172219679 1.1296873865 
1.24411054 1.3575464161 1.4671972081 0.60381225391 0.57404952988 0.69302191562 0.54002084522 0.66790778838 0.79216440667 
0.50083690068 0.63877777351 0.77356233629 0.90072551443 0.45538277901 0.60464862014 0.75168694275 0.89058134991 1.0172219679 
0.40226393329 0.56421707518 0.72561863695 0.87851444325 1.0172219679 1.139116835 0.33975332011 0.51573716537 0.69407236469 
0.86392567495 1.0172219679 1.1502619915 1.2630228569 0.26576171152 0.45685295248 0.6552068806 0.84594095064 1.0172219679 
1.1636342747 1.2852923014 1.3852070904 0.22715816343 0.3129712797 0.49462574053 0.49462574053 0.68021497688 0.77059342779 
1.0172219679 1.0172219679 1.0172219679 1.0172219679 2.1243706857 1.5707963268 1.3676273807 1.271087727 1.2156949949 
2.6469669131 2.1243706857 1.7739652728 1.5707963268 1.447813335 1.3676273807 2.8286213739 2.4613776767 2.1243706857 
1.8705049266 1.6937793186 1.5707963268 1.4827341049 2.9144344902 2.6469669131 2.3709992258 2.1243706857 1.9258976586 
1.7739652728 1.6588585487 1.5707963268 1.7563855631 1.8563003522 1.8785697967 1.9779583789 1.9913306621 2.0024758186 
2.1243706857 2.1243706857 2.1243706857 2.1243706857 2.295651703 2.2776669786 2.2630782103 2.2510113037 2.2408671392 
2.486385773 2.4475202889 2.4159740166 2.3899057108 2.3680303173 2.3494282469 2.6847397011 2.6258554882 2.5773755784 
2.5369440334 2.5028148801 2.4736848652 2.448570738 2.8758309421 2.8018393335 2.7393287203 2.6862098746 2.6407557529 
2.6015718084 2.5675431237 2.5377803997 5.8604937156 5.901393709 5.9723133995 5.9473927383 6.0216547488 6.0927478736 
5.9992719463 6.0767621038 6.1501452836 6.2190157008 6.0578962336 6.1383094565 6.2134963469 0 0.064169606361 
6.1241815303 6.206940195 6.2831853072 0.069688960264 0.13304002361 0.19043743361 6.1990255847 0 0.07624511221 
0.14487585072 0.20642320337 0.26153055843 0.3108719077 0 0.084159722458 0.15900377685 0.22528907359 0.28391336087 
0.3357925689 0.38179159818 0.42269159155 5.8604937156 5.9723133995 5.901393709 6.0927478736 6.0216547488 5.9473927383 
6.2190157008 6.1501452836 6.0767621038 5.9992719463 0.064169606361 0 6.2134963469 6.1383094565 6.0578962336 
0.19043743361 0.13304002361 0.069688960264 6.2831853072 6.206940195 6.1241815303 0.3108719077 0.26153055843 0.20642320337 
0.14487585072 0.07624511221 6.2831853072 6.1990255847 0.42269159155 0.38179159818 0.3357925689 0.28391336087 0.22528907359 
0.15900377685 0.084159722458 0 5.6793730533 5.7091357773 5.5901633916 5.743164462 5.6152775188 5.4910209005 
5.7823484065 5.6444075337 5.5096229709 5.3824597928 5.8278025282 5.678536687 5.5314983644 5.3926039573 5.2659633393 
5.8809213739 5.718968232 5.5575666702 5.4046708639 5.2659633393 5.1440684722 5.9434319871 5.7674481418 5.5891129425 
5.4192596322 5.2659633393 5.1329233157 5.0201624502 6.0174235957 5.8263323547 5.6279784266 5.4372443565 5.2659633393 
5.1195510325 4.9978930058 4.8979782167 1.3852070904 1.2852923014 1.2630228569 1.1636342747 1.1502619915 1.139116835 
1.0172219679 1.0172219679 1.0172219679 1.0172219679 0.84594095064 0.86392567495 0.87851444325 0.89058134991 0.90072551443 
0.6552068806 0.69407236469 0.72561863695 0.75168694275 0.77356233629 0.79216440667 0.45685295248 0.51573716537 0.56421707518 
0.60464862014 0.63877777351 0.66790778838 0.69302191562 0.26576171152 0.33975332011 0.40226393329 0.45538277901 0.50083690068 
0.54002084522 0.57404952988 0.60381225391 
_paraPhiHalf 1 1002 double
0 3.1415926536 0 3.1415926536 1.5707963268 1.5707963268 1.5707963268 1.5707963268 2.5880182947 
0.5535743589 2.5880182947 0.5535743589 0 0 0 0 3.1415926536 3.1415926536 
3.1415926536 3.1415926536 3.1415926536 0.17788134 0.38438696014 0.60631181711 0.82323535693 1.0172219679 1.1799687454 
1.3118704726 1.4175000338 1.5022335207 0.17788134 0.38438696014 0.60631181711 0.82323535693 1.0172219679 1.1799687454 
1.3118704726 1.4175000338 1.5022335207 0.093902416448 0.17615329733 0.2478725152 0.31035131605 0.36486382811 0.41257334776 
0.45449736604 0.4915044461 0.52432611754 0.093902416448 0.17615329733 0.2478725152 0.31035131605 0.36486382811 0.41257334776 
0.45449736604 0.4915044461 0.52432611754 2.9637113136 2.7572056934 2.5352808365 2.3183572967 2.1243706857 1.9616239082 
1.829722181 1.7240926197 1.6393591329 2.9637113136 2.7572056934 2.5352808365 2.3183572967 2.1243706857 1.9616239082 
1.829722181 1.7240926197 1.6393591329 3.0476902371 2.9654393563 2.8937201384 2.8312413375 2.7767288255 2.7290193058 
2.6870952876 2.6500882075 2.617266536 3.0476902371 2.9654393563 2.8937201384 2.8312413375 2.7767288255 2.7290193058 
2.6870952876 2.6500882075 2.617266536 0 0 0 0 3.1415926536 3.1415926536 
3.1415926536 3.1415926536 3.1415926536 0.17788134 0.38438696014 0.60631181711 0.82323535693 1.0172219679 1.1799687454 
1.3118704726 1.4175000338 1.5022335207 0.17788134 0.38438696014 0.60631181711 0.82323535693 1.0172219679 1.1799687454 
1.3118704726 1.4175000338 1.5022335207 0.093902416448 0.17615329733 0.2478725152 0.31035131605 0.36486382811 0.41257334776 
0.45449736604 0.4915044461 0.52432611754 0.093902416448 0.17615329733 0.2478725152 0.31035131605 0.36486382811 0.41257334776 
0.45449736604 0.4915044461 0.52432611754 2.9637113136 2.7572056934 2.5352808365 2.3183572967 2.1243706857 1.9616239082 
1.829722181 1.7240926197 1.6393591329 2.9637113136 2.7572056934 2.5352808365 2.3183572967 2.1243706857 1.9616239082 
1.829722181 1.7240926197 1.6393591329 3.0476902371 2.9654393563 2.8937201384 2.8312413375 2.7767288255 2.7290193058 
2.6870952876 2.6500882075 2.617266536 3.0476902371 2.9654393563 2.8937201384 2.8312413375 2.7767288255 2.7290193058 
2.6870952876 2.6500882075 2.617266536 1.5707963268 1.5707963268 1.5707963268 1.5707963268 1.5707963268 1.5707963268 
1.5707963268 1.5707963268 1.5707963268 1.6743954455 1.7840462375 1.8974821136 2.0119052671 2.1243706857 2.232221744 
2.3334263672 2.426721652 2.5115728246 1.4671972081 1.3575464161 1.24411054 1.1296873865 1.0172219679 0.90937090954 
0.80816628637 0.71487100155 0.63001982895 1.6743954455 1.7840462375 1.8974821136 2.0119052671 2.1243706857 2.232221744 
2.3334263672 2.426721652 2.5115728246 1.4671972081 1.3575464161 1.24411054 1.1296873865 1.0172219679 0.90937090954 
0.80816628637 0.71487100155 0.63001982895 1.5707963268 1.5707963268 1.5707963268 1.5707963268 1.5707963268 1.5707963268 
1.5707963268 1.5707963268 1.5707963268 1.6743954455 1.7840462375 1.8974821136 2.0119052671 2.1243706857 2.232221744 
2.3334263672 2.426721652 2.5115728246 1.4671972081 1.3575464161 1.24411054 1.1296873865 1.0172219679 0.90937090954 
0.80816628637 0.71487100155 0.63001982895 1.6743954455 1.7840462375 1.8974821136 2.0119052671 2.1243706857 2.232221744 
2.3334263672 2.426721652 2.5115728246 1.4671972081 1.3575464161 1.24411054 1.1296873865 1.0172219679 0.90937090954 
0.80816628637 0.71487100155 0.63001982895 2.6824132222 2.7864913217 2.8992382033 3.0186096618 3.1415926536 3.0186096618 
2.8992382033 2.7864913217 2.6824132222 0.45917943135 0.35510133185 0.2423544503 0.12298299178 0 0.12298299178 
0.2423544503 0.35510133185 0.45917943135 0.22715816343 0.49462574053 0.3129712797 0.77059342779 0.68021497688 0.49462574053 
1.0172219679 1.0172219679 1.0172219679 1.0172219679 1.2156949949 1.271087727 1.3676273807 1.5707963268 2.1243706857 
1.3676273807 1.447813335 1.5707963268 1.7739652728 2.1243706857 2.6469669131 1.4827341049 1.5707963268 1.6937793186 
1.8705049266 2.1243706857 2.4613776767 2.8286213739 1.5707963268 1.6588585487 1.7739652728 1.9258976586 2.1243706857 
2.3709992258 2.6469669131 2.9144344902 0.26576171152 0.33975332011 0.45685295248 0.40226393329 0.51573716537 0.6552068806 
0.45538277901 0.56421707518 0.69407236469 0.84594095064 0.50083690068 0.60464862014 0.72561863695 0.86392567495 1.0172219679 
0.54002084522 0.63877777351 0.75168694275 0.87851444325 1.0172219679 1.1636342747 0.57404952988 0.66790778838 0.77356233629 
0.89058134991 1.0172219679 1.1502619915 1.2852923014 0.60381225391 0.69302191562 0.79216440667 0.90072551443 1.0172219679 
1.139116835 1.2630228569 1.3852070904 0.71487100155 0.80816628637 0.80816628637 0.90937090954 0.90937090954 0.90937090954 
1.0172219679 1.0172219679 1.0172219679 1.0172219679 1.1296873865 1.1296873865 1.1296873865 1.1296873865 1.1296873865 
1.24411054 1.24411054 1.24411054 1.24411054 1.24411054 1.24411054 1.3575464161 1.3575464161 1.3575464161 
1.3575464161 1.3575464161 1.3575464161 1.3575464161 1.4671972081 1.4671972081 1.4671972081 1.4671972081 1.4671972081 
1.4671972081 1.4671972081 1.4671972081 1.6743954455 1.6743954455 1.7840462375 1.6743954455 1.7840462375 1.8974821136 
1.6743954455 1.7840462375 1.8974821136 2.0119052671 1.6743954455 1.7840462375 1.8974821136 2.0119052671 2.1243706857 
1.6743954455 1.7840462375 1.8974821136 2.0119052671 2.1243706857 2.232221744 1.6743954455 1.7840462375 1.8974821136 
2.0119052671 2.1243706857 2.232221744 2.3334263672 1.6743954455 1.7840462375 1.8974821136 2.0119052671 2.1243706857 
2.232221744 2.3334263672 2.426721652 1.7563855631 1.8785697967 1.8563003522 2.0024758186 1.9913306621 1.9779583789 
2.1243706857 2.1243706857 2.1243706857 2.1243706857 2.2408671392 2.2510113037 2.2630782103 2.2776669786 2.295651703 
2.3494282469 2.3680303173 2.3899057108 2.4159740166 2.4475202889 2.486385773 2.448570738 2.4736848652 2.5028148801 
2.5369440334 2.5773755784 2.6258554882 2.6847397011 2.5377803997 2.5675431237 2.6015718084 2.6407557529 2.6862098746 
2.7393287203 2.8018393335 2.8758309421 2.718901062 2.8307207459 2.7598010554 2.95115522 2.8800620952 2.8058000847 
3.0774230472 3.00855263 2.9351694502 2.8576792927 3.0774230472 3.1415926536 3.0719036933 2.9967168029 2.91630358 
2.95115522 3.00855263 3.0719036933 3.1415926536 3.0653475414 2.9825888767 2.8307207459 2.8800620952 2.9351694502 
2.9967168029 3.0653475414 3.1415926536 3.0574329311 2.718901062 2.7598010554 2.8058000847 2.8576792927 2.91630358 
2.9825888767 3.0574329311 3.1415926536 2.718901062 2.7598010554 2.8307207459 2.8058000847 2.8800620952 2.95115522 
2.8576792927 2.9351694502 3.00855263 3.0774230472 2.91630358 2.9967168029 3.0719036933 3.1415926536 3.0774230472 
2.9825888767 3.0653475414 3.1415926536 3.0719036933 3.00855263 2.95115522 3.0574329311 3.1415926536 3.0653475414 