# vtk DataFile Version 5.1
vtk output
ASCII
DATASET POLYDATA
POINTS 1002 float
-8.82727 -0.145546 -3.49958 8.98682 -0.748619 -3.31754 -8.20785 0.338954 3.46335 
7.87761 -0.65663 2.34334 -1.05147 1.78737 -2.11087 -1.52941 2.24033 1.54606 
-0.66062 -6.03131 -1.93952 0.655779 -6.89057 2.45315 14.2747 9.07825 1.13396 
-13.2707 7.46311 0.770367 14.1377 -2.52432 -0.213085 -12.9723 -3.3843 -0.0678876 
-7.71811 -0.48809 -3.51489 -6.42635 -0.91201 -3.56703 -4.88916 -1.38047 -3.59639 
-2.96694 -1.76958 -3.43306 -0.661493 -2.00924 -3.13599 1.78076 -2.09679 -2.98924 
4.07921 -1.98784 -3.06685 6.05761 -1.67816 -3.22531 7.66736 -1.24662 -3.33441 
-8.618 0.322706 -3.56289 -8.27875 0.797398 -3.59296 -7.76824 1.27363 -3.56558 
-7.10438 1.71266 -3.52183 -6.28707 2.03315 -3.48744 -5.33117 2.21768 -3.36156 
-4.31138 2.31038 -3.08336 -3.24703 2.27768 -2.74606 -2.13846 2.07555 -2.4242 
-8.32232 -0.830851 -3.4188 -7.71887 -1.57022 -3.30585 -7.01076 -2.34464 -3.21363 
-6.21506 -3.11545 -3.15306 -5.33101 -3.81921 -3.0159 -4.36122 -4.41279 -2.75647 
-3.38301 -4.92392 -2.51015 -2.44521 -5.37991 -2.3389 -1.52947 -5.75249 -2.15786 
-9.75106 0.509468 -3.48388 -10.6774 1.30362 -3.35802 -11.5929 2.21298 -3.15319 
-12.4591 3.16171 -2.90408 -13.1725 4.1816 -2.51289 -13.6639 5.28709 -1.9326 
-13.9315 6.23983 -1.28823 -13.9454 6.85419 -0.628706 -13.6962 7.22518 0.0796234 
-9.5701 -0.263829 -3.43888 -10.325 -0.432778 -3.34313 -11.0576 -0.662692 -3.18598 
-11.696 -0.96727 -2.93312 -12.2095 -1.32589 -2.56534 -12.6453 -1.73282 -2.15553 
-12.9802 -2.22167 -1.74972 -13.1269 -2.7388 -1.25585 -13.0988 -3.14628 -0.654137 
8.67435 -0.385801 -3.26114 8.26367 -0.0208389 -3.17077 7.72839 0.36149 -3.07899 
7.02313 0.685084 -2.91418 6.11997 0.846696 -2.64242 4.96682 0.888555 -2.38919 
3.50168 0.903431 -2.22342 1.84101 0.968392 -2.11669 0.25789 1.23433 -2.08198 
8.42311 -1.46836 -3.35106 7.66394 -2.21764 -3.29253 6.72153 -2.92988 -3.19453 
5.67452 -3.58288 -3.11354 4.55829 -4.20143 -3.00079 3.38855 -4.72704 -2.79286 
2.24504 -5.11317 -2.5425 1.18915 -5.43842 -2.32345 0.220779 -5.75424 -2.13285 
10.0683 0.111292 -3.13771 11.2346 1.19162 -2.83002 12.389 2.40555 -2.52928 
13.3026 3.59275 -2.28175 13.9553 4.74264 -1.88222 14.5325 6.00945 -1.26487 
14.9375 7.36171 -0.657512 14.9357 8.47091 -0.118926 14.6251 9.04553 0.482684 
9.93719 -0.640213 -3.21316 10.9456 -0.500614 -3.00583 11.9365 -0.379344 -2.78133 
12.8002 -0.404047 -2.57961 13.4893 -0.58089 -2.31975 14.0261 -0.810724 -1.97174 
14.4183 -1.15738 -1.59078 14.6012 -1.6636 -1.16103 14.498 -2.16173 -0.674621 
-7.00022 -0.119317 3.52004 -5.56714 -0.582611 3.6608 -3.97757 -1.03976 3.79311 
-2.3041 -1.46912 3.7132 -0.505283 -1.77332 3.47783 1.42201 -1.87053 3.24003 
3.29327 -1.77436 2.92727 4.97119 -1.51454 2.57658 6.48927 -1.12047 2.37931 
-7.81966 0.719126 3.44517 -7.3175 1.08215 3.38656 -6.72226 1.41612 3.27766 
-6.07553 1.73303 3.14099 -5.37224 2.01679 2.97661 -4.60616 2.21716 2.76579 
-3.80673 2.33338 2.52036 -3.00768 2.38439 2.24369 -2.24516 2.35279 1.91522 
-7.83407 -0.328779 3.53023 -7.42888 -0.982596 3.68423 -6.95091 -1.66192 3.79447 
-6.19644 -2.51584 3.63838 -5.10203 -3.51412 3.28833 -3.86255 -4.40863 3.02728 
-2.59481 -5.13525 2.89766 -1.33041 -5.81788 2.78309 -0.208529 -6.4411 2.63975 
-9.08071 1.06135 3.40996 -9.89258 1.81833 3.26365 -10.6341 2.59802 2.99683 
-11.3458 3.48314 2.71999 -12.003 4.41948 2.48934 -12.5293 5.26293 2.26766 
-12.931 6.05671 2.04839 -13.2204 6.79205 1.76922 -13.3386 7.28042 1.33364 
-9.11342 0.349294 3.4122 -10.0629 0.270176 3.25065 -11.035 0.0740257 2.99609 
-11.9295 -0.245679 2.71765 -12.6576 -0.684648 2.36938 -13.1979 -1.20733 1.90789 
-13.4852 -1.79089 1.42401 -13.4754 -2.42203 0.950898 -13.2634 -2.99694 0.445534 
7.42046 -0.394047 2.28868 6.86693 -0.150753 2.2567 6.15556 0.053572 2.21612 
5.21953 0.203526 2.1236 4.06345 0.320528 2.00142 2.77049 0.466188 1.8984 
1.47303 0.721061 1.82471 0.291025 1.13225 1.7571 -0.713936 1.66565 1.66582 
7.45598 -1.25209 2.41483 6.96723 -1.90619 2.50544 6.40193 -2.59444 2.59857 
5.76274 -3.29741 2.68229 5.03969 -4.00797 2.75803 4.28203 -4.72457 2.81283 
3.54367 -5.44164 2.8262 2.72432 -6.09426 2.77981 1.73283 -6.58348 2.65287 
8.98826 0.049215 2.30062 10.1551 0.899684 2.20763 11.3 1.92136 2.11125 
12.3956 3.13634 2.16493 13.4123 4.51358 2.38097 14.215 5.92274 2.61185 
14.621 7.19701 2.69431 14.6272 8.20944 2.44768 14.4513 8.85482 1.852 
8.96112 -0.536731 2.37285 10.0128 -0.46701 2.32209 10.9679 -0.489321 2.17606 
11.8475 -0.630087 2.03139 12.6444 -0.925881 1.86896 13.2599 -1.33522 1.54628 
13.6757 -1.71478 1.10583 13.9615 -2.01536 0.681904 14.1255 -2.28734 0.259831 
-1.15082 2.05362 -1.92346 -1.33165 2.35894 -1.65981 -1.52603 2.64257 -1.31475 
-1.62303 2.84706 -0.950221 -1.60319 2.98636 -0.548152 -1.54107 3.05377 -0.0590543 
-1.5026 2.98261 0.432594 -1.50688 2.77548 0.84857 -1.52821 2.51025 1.21386 
0.977941 1.2761 -1.7503 3.41376 1.44641 -1.47787 5.77642 2.46831 -1.42531 
7.5994 3.89233 -1.41127 9.01161 5.12668 -1.17561 10.429 6.102 -0.777329 
11.8108 7.04211 -0.360727 12.8814 7.97173 0.0973665 13.6501 8.71243 0.61664 
-2.71228 2.83727 -2.29685 -4.14227 3.99008 -2.30685 -5.57727 4.84542 -2.11984 
-7.06923 5.48111 -1.80002 -8.42992 6.22078 -1.38491 -9.63116 6.97918 -0.936305 
-10.7091 7.4638 -0.500856 -11.6476 7.65486 -0.0478709 -12.5002 7.64952 0.402259 
-0.194472 1.74628 1.22974 1.7154 1.46765 0.979153 4.27845 1.81417 0.943414 
6.92753 2.91092 1.09154 8.94555 4.34967 1.26169 10.4017 5.66305 1.39047 
11.6978 6.7679 1.48614 12.7897 7.75746 1.50737 13.593 8.58654 1.39494 
-2.69266 2.93808 1.62517 -3.92887 3.66697 1.63765 -5.25578 4.42658 1.62329 
-6.54246 5.24308 1.66295 -7.72731 6.06417 1.73428 -8.91541 6.81891 1.7356 
-10.1168 7.43133 1.64919 -11.2462 7.75975 1.4814 -12.2997 7.73616 1.18589 
-0.678428 -6.33116 -1.63781 -0.720571 -6.63782 -1.25832 -0.772615 -6.99192 -0.831201 
-0.800182 -7.35599 -0.354966 -0.751062 -7.58311 0.180036 -0.57498 -7.61054 0.730152 
-0.279649 -7.53063 1.25703 0.0695954 -7.40601 1.74025 0.400225 -7.20228 2.14325 
0.731474 -6.14058 -1.88523 2.15773 -6.3309 -1.95701 3.61165 -6.50471 -2.08732 
5.34274 -6.33349 -2.10118 7.55494 -5.697 -1.97318 9.86329 -4.95535 -1.78962 
11.6213 -4.37555 -1.5144 12.7288 -3.81988 -1.10053 13.5082 -3.17671 -0.632133 
-2.05932 -6.11951 -1.8833 -3.53342 -6.15472 -1.81994 -5.04854 -6.11461 -1.70613 
-6.57031 -6.02514 -1.54853 -8.00064 -5.87741 -1.40457 -9.27032 -5.58209 -1.23273 
-10.4064 -5.10068 -0.943445 -11.4099 -4.53213 -0.606032 -12.2576 -3.96744 -0.322194 
2.0465 -7.0256 2.30732 3.48978 -7.04935 2.03533 5.08012 -6.98058 1.73955 
6.74913 -6.7347 1.48536 8.38553 -6.22853 1.1878 9.92846 -5.54999 0.812348 
11.2295 -4.80722 0.464718 12.2822 -4.02183 0.198667 13.2532 -3.2423 -0.0181823 
-1.00319 -6.8667 2.31542 -2.87875 -6.7897 2.14118 -4.8532 -6.69805 1.99792 
-6.76687 -6.55182 1.85584 -8.43093 -6.2911 1.66331 -9.7442 -5.8924 1.41054 
-10.7693 -5.32857 1.08047 -11.6182 -4.64182 0.695527 -12.3494 -3.96781 0.309886 
15.0902 9.05445 1.16764 15.8273 8.28081 1.0603 16.2966 6.74873 0.899746 
16.5999 4.95256 0.774757 16.7399 3.41536 0.640941 16.4786 2.05223 0.444415 
15.9828 0.635421 0.234342 15.5109 -0.656357 0.0583757 14.9223 -1.67304 -0.0866907 
-14.2511 6.96756 0.641592 -15.0325 6.25953 0.469198 -15.4442 5.33623 0.301624 
-15.6039 4.16971 0.104543 -15.6363 2.77319 -0.121136 -15.4513 1.23206 -0.244113 
-15.0338 -0.291997 -0.227343 -14.4528 -1.59842 -0.176823 -13.7393 -2.60234 -0.131804 
-7.39616 -0.0648482 -3.59411 -6.93074 0.363634 -3.61737 -5.94858 -0.5491 -3.632 
-6.30987 0.787883 -3.57131 -5.30773 -0.179535 -3.61117 -4.16987 -1.06671 -3.5623 
-5.52858 1.12969 -3.4997 -4.51721 0.15788 -3.51722 -3.26021 -0.763203 -3.45943 
-1.93978 -1.46377 -3.27851 -4.56512 1.30958 -3.40078 -3.53767 0.375913 -3.37328 
-2.17551 -0.520446 -3.31233 -0.705673 -1.18071 -3.14128 0.629273 -1.65154 -2.97552 
-3.46518 1.383 -3.19033 -2.3261 0.497836 -3.16037 -0.860904 -0.312095 -3.08079 
0.717182 -0.895537 -2.9951 2.09568 -1.26452 -2.89454 3.19791 -1.61315 -2.90785 
-2.27203 1.40724 -2.85 -0.947515 0.64358 -2.85511 0.646333 0.00110967 -2.78377 
2.26192 -0.456608 -2.77867 3.62648 -0.746013 -2.84204 4.65731 -1.02428 -2.91316 
5.44625 -1.34832 -3.05082 -0.99974 1.34596 -2.45648 0.48731 0.812251 -2.48406 
2.16128 0.44082 -2.49025 3.73335 0.187996 -2.56102 5.01312 0.00227538 -2.75963 
5.97554 -0.245065 -2.95469 6.69118 -0.576663 -3.08448 7.24398 -0.914476 -3.21966 
-9.55618 1.06192 -3.53155 -10.467 1.94955 -3.3953 -9.16886 1.62342 -3.5246 
-11.3352 2.94416 -3.14443 -10.0128 2.60502 -3.32693 -8.58594 2.17683 -3.46304 
-12.1295 3.98305 -2.76178 -10.8268 3.68122 -2.95553 -9.39316 3.23317 -3.20753 
-7.86852 2.65766 -3.43116 -12.7337 5.10077 -2.22358 -11.5406 4.78308 -2.44379 
-10.1576 4.34724 -2.75574 -8.64229 3.74106 -3.15702 -6.9816 3.00186 -3.37477 
-13.0509 6.18039 -1.60939 -11.985 5.88789 -1.88183 -10.6965 5.40851 -2.20885 
-9.26057 4.80424 -2.67748 -7.639 4.07181 -3.0438 -5.9316 3.22335 -3.14228 
-13.0772 6.94596 -0.983244 -12.0993 6.80393 -1.31539 -10.9173 6.35842 -1.65817 
-9.56678 5.70217 -2.11078 -8.08096 4.99818 -2.54997 -6.44026 4.2403 -2.77156 
-4.8302 3.3107 -2.81519 -12.8623 7.38166 -0.304482 -11.9515 7.36034 -0.705912 
-10.8979 7.06284 -1.09074 -9.6597 6.43554 -1.51879 -8.30491 5.67501 -1.98091 
-6.80021 4.99312 -2.32563 -5.23689 4.22759 -2.50584 -3.74309 3.18039 -2.54371 
-11.4702 7.82743 0.750567 -10.3312 7.72716 0.977969 -10.545 7.69611 0.209411 
-9.10041 7.30653 1.11644 -9.31303 7.47835 0.362339 -9.53616 7.35376 -0.324124 
-7.8882 6.64815 1.21918 -8.06389 7.00211 0.46902 -8.28886 7.01287 -0.22826 
-8.44347 6.70146 -0.807915 -6.71209 5.84081 1.27111 -6.85946 6.31397 0.598188 
-7.00975 6.47092 -0.132696 -7.14265 6.26043 -0.70911 -7.16486 5.86799 -1.24664 
-5.40223 4.9738 1.29036 -5.52627 5.48812 0.746143 -5.60239 5.77497 0.0388798 
-5.65428 5.71303 -0.575911 -5.69302 5.44315 -1.09484 -5.66343 5.15709 -1.63945 
-4.00398 4.13314 1.31079 -4.0672 4.61028 0.86733 -4.10652 4.95455 0.248174 
[...]
POINT_DATA 1002
FIELD FieldData 4
_paraPhi 1 1002 double
6.2831853072 3.1415926536 6.2831853072 3.1415926536 4.7123889804 4.7123889804 1.5707963268 1.5707963268 3.6951670125 
5.7296109483 2.5880182947 0.5535743589 6.2831853072 6.2831853072 6.2831853072 6.2831853072 3.1415926536 3.1415926536 
3.1415926536 3.1415926536 3.1415926536 6.1053039672 5.898798347 5.6768734901 5.4599499503 5.2659633393 5.1032165617 
4.9713148346 4.8656852733 4.7809517865 0.17788134 0.38438696014 0.60631181711 0.82323535693 1.0172219679 1.1799687454 
1.3118704726 1.4175000338 1.5022335207 6.1892828907 6.1070320098 6.035312792 5.9728339911 5.9183214791 5.8706119594 
5.8286879411 5.7916808611 5.7588591896 0.093902416448 0.17615329733 0.2478725152 0.31035131605 0.36486382811 0.41257334776 
0.45449736604 0.4915044461 0.52432611754 3.3194739936 3.5259796137 3.7479044707 3.9648280105 4.1588146215 4.321561399 
4.4534631262 4.5590926874 4.6438261743 2.9637113136 2.7572056934 2.5352808365 2.3183572967 2.1243706857 1.9616239082 
1.829722181 1.7240926197 1.6393591329 3.23549507 3.3177459509 3.3894651688 3.4519439696 3.5064564817 3.5541660013 
3.5960900196 3.6330970997 3.6659187711 3.0476902371 2.9654393563 2.8937201384 2.8312413375 2.7767288255 2.7290193058 
2.6870952876 2.6500882075 2.617266536 6.2831853072 6.2831853072 6.2831853072 6.2831853072 3.1415926536 3.1415926536 
3.1415926536 3.1415926536 3.1415926536 6.1053039672 5.898798347 5.6768734901 5.4599499503 5.2659633393 5.1032165617 
4.9713148346 4.8656852733 4.7809517865 0.17788134 0.38438696014 0.60631181711 0.82323535693 1.0172219679 1.1799687454 
1.3118704726 1.4175000338 1.5022335207 6.1892828907 6.1070320098 6.035312792 5.9728339911 5.9183214791 5.8706119594 
5.8286879411 5.7916808611 5.7588591896 0.093902416448 0.17615329733 0.2478725152 0.31035131605 0.36486382811 0.41257334776 
0.45449736604 0.4915044461 0.52432611754 3.3194739936 3.5259796137 3.7479044707 3.9648280105 4.1588146215 4.321561399 
4.4534631262 4.5590926874 4.6438261743 2.9637113136 2.7572056934 2.5352808365 2.3183572967 2.1243706857 1.9616239082 
1.829722181 1.7240926197 1.6393591329 3.23549507 3.3177459509 3.3894651688 3.4519439696 3.5064564817 3.5541660013 
3.5960900196 3.6330970997 3.6659187711 3.0476902371 2.9654393563 2.8937201384 2.8312413375 2.7767288255 2.7290193058 
2.6870952876 2.6500882075 2.617266536 4.7123889804 4.7123889804 4.7123889804 4.7123889804 4.7123889804 4.7123889804 
4.7123889804 4.7123889804 4.7123889804 4.6087898617 4.4991390697 4.3857031936 4.2712800401 4.1588146215 4.0509635631 
3.94975894 3.8564636551 3.7716124825 4.8159880991 4.9256388911 5.0390747672 5.1534979207 5.2659633393 5.3738143976 
5.4750190208 5.5683143056 5.6531654782 4.6087898617 4.4991390697 4.3857031936 4.2712800401 4.1588146215 4.0509635631 
3.94975894 3.8564636551 3.7716124825 4.8159880991 4.9256388911 5.0390747672 5.1534979207 5.2659633393 5.3738143976 
5.4750190208 5.5683143056 5.6531654782 1.5707963268 1.5707963268 1.5707963268 1.5707963268 1.5707963268 1.5707963268 
1.5707963268 1.5707963268 1.5707963268 1.6743954455 1.7840462375 1.8974821136 2.0119052671 2.1243706857 2.232221744 
2.3334263672 2.426721652 2.5115728246 1.4671972081 1.3575464161 1.24411054 1.1296873865 1.0172219679 0.90937090954 
0.80816628637 0.71487100155 0.63001982895 1.6743954455 1.7840462375 1.8974821136 2.0119052671 2.1243706857 2.232221744 
2.3334263672 2.426721652 2.5115728246 1.4671972081 1.3575464161 1.24411054 1.1296873865 1.0172219679 0.90937090954 
0.80816628637 0.71487100155 0.63001982895 3.6007720849 3.4966939854 3.3839471039 3.2645756454 3.1415926536 3.0186096618 
2.8992382033 2.7864913217 2.6824132222 5.8240058758 5.9280839753 6.0408308569 6.1602023154 6.2831853072 0.12298299178 
0.2423544503 0.35510133185 0.45917943135 6.0560271438 5.7885595667 5.9702140275 5.5125918794 5.6029703303 5.7885595667 
5.2659633393 5.2659633393 5.2659633393 5.2659633393 5.0674903122 5.0120975802 4.9155579264 4.7123889804 4.1588146215 
4.9155579264 4.8353719722 4.7123889804 4.5092200343 4.1588146215 3.6362183941 4.8004512023 4.7123889804 4.5894059886 
4.4126803806 4.1588146215 3.8218076305 3.4545639333 4.7123889804 4.6243267584 4.5092200343 4.3572876485 4.1588146215 
3.9121860814 3.6362183941 3.368750817 6.0174235957 5.9434319871 5.8263323547 5.8809213739 5.7674481418 5.6279784266 
5.8278025282 5.718968232 5.5891129425 5.4372443565 5.7823484065 5.678536687 5.5575666702 5.4192596322 5.2659633393 
5.743164462 5.6444075337 5.5314983644 5.4046708639 5.2659633393 5.1195510325 5.7091357773 5.6152775188 5.5096229709 
5.3926039573 5.2659633393 5.1329233157 4.9978930058 5.6793730533 5.5901633916 5.4910209005 5.3824597928 5.2659633393 
5.1440684722 5.0201624502 4.8979782167 5.5683143056 5.4750190208 5.4750190208 5.3738143976 5.3738143976 5.3738143976 
5.2659633393 5.2659633393 5.2659633393 5.2659633393 5.1534979207 5.1534979207 5.1534979207 5.1534979207 5.1534979207 
5.0390747672 5.0390747672 5.0390747672 5.0390747672 5.0390747672 5.0390747672 4.9256388911 4.9256388911 4.9256388911 
4.9256388911 4.9256388911 4.9256388911 4.9256388911 4.8159880991 4.8159880991 4.8159880991 4.8159880991 4.8159880991 
4.8159880991 4.8159880991 4.8159880991 4.6087898617 4.6087898617 4.4991390697 4.6087898617 4.4991390697 4.3857031936 
4.6087898617 4.4991390697 4.3857031936 4.2712800401 4.6087898617 4.4991390697 4.3857031936 4.2712800401 4.1588146215 
4.6087898617 4.4991390697 4.3857031936 4.2712800401 4.1588146215 4.0509635631 4.6087898617 4.4991390697 4.3857031936 
4.2712800401 4.1588146215 4.0509635631 3.94975894 4.6087898617 4.4991390697 4.3857031936 4.2712800401 4.1588146215 
4.0509635631 3.94975894 3.8564636551 4.526799744 4.4046155105 4.426884955 4.2807094886 4.2918546451 4.3052269283 
4.1588146215 4.1588146215 4.1588146215 4.1588146215 4.042318168 4.0321740035 4.0201070968 4.0055183285 3.9875336042 
3.9337570603 3.9151549899 3.8932795963 3.8672112905 3.8356650183 3.7967995342 3.8346145692 3.809500442 3.7803704271 
3.7462412737 3.7058097288 3.657329819 3.5984456061 3.7454049075 3.7156421835 3.6816134988 3.6424295543 3.5969754326 
3.5438565869 3.4813459737 3.4073543651 3.5642842451 3.4524645613 3.5233842518 3.3320300872 3.403123212 3.4773852225 
3.20576226 3.2746326772 3.348015857 3.4255060145 3.0774230472 3.1415926536 3.2112816139 3.2864685043 3.3668817272 
2.95115522 3.00855263 3.0719036933 3.1415926536 3.2178377658 3.3005964304 2.8307207459 2.8800620952 2.9351694502 
2.9967168029 3.0653475414 3.1415926536 3.225752376 2.718901062 2.7598010554 2.8058000847 2.8576792927 2.91630358 
2.9825888767 3.0574329311 3.1415926536 3.5642842451 3.5233842518 3.4524645613 3.4773852225 3.403123212 3.3320300872 
3.4255060145 3.348015857 3.2746326772 3.20576226 3.3668817272 3.2864685043 3.2112816139 3.1415926536 3.0774230472 
3.3005964304 3.2178377658 3.1415926536 3.0719036933 3.00855263 2.95115522 3.225752376 3.1415926536 3.0653475414 
2.9967168029 2.9351694502 2.8800620952 2.8307207459 3.1415926536 3.0574329311 2.9825888767 2.91630358 2.8576792927 
2.8058000847 2.7598010554 2.718901062 4.526799744 4.426884955 4.4046155105 4.3052269283 4.2918546451 4.2807094886 
4.1588146215 4.1588146215 4.1588146215 4.1588146215 3.9875336042 4.0055183285 4.0201070968 4.0321740035 4.042318168 
3.7967995342 3.8356650183 3.8672112905 3.8932795963 3.9151549899 3.9337570603 3.5984456061 3.657329819 3.7058097288 
3.7462412737 3.7803704271 3.809500442 3.8346145692 3.4073543651 3.4813459737 3.5438565869 3.5969754326 3.6424295543 
3.6816134988 3.7156421835 3.7454049075 4.7123889804 4.8004512023 4.6243267584 4.9155579264 4.7123889804 4.5092200343 
5.0674903122 4.8353719722 4.5894059886 4.3572876485 5.2659633393 5.0120975802 4.7123889804 4.4126803806 4.1588146215 
5.5125918794 5.2659633393 4.9155579264 4.5092200343 4.1588146215 3.9121860814 5.7885595667 5.6029703303 5.2659633393 
4.7123889804 4.1588146215 3.8218076305 3.6362183941 6.0560271438 5.9702140275 5.7885595667 5.2659633393 4.1588146215 
3.6362183941 3.4545639333 3.368750817 0.22715816343 0.49462574053 0.3129712797 0.77059342779 0.68021497688 0.49462574053 
1.0172219679 1.0172219679 1.0172219679 1.0172219679 1.2156949949 1.271087727 1.3676273807 1.5707963268 2.1243706857 
1.3676273807 1.447813335 1.5707963268 1.7739652728 2.1243706857 2.6469669131 1.4827341049 1.5707963268 1.6937793186 
1.8705049266 2.1243706857 2.4613776767 2.8286213739 1.5707963268 1.6588585487 1.7739652728 1.9258976586 2.1243706857 
2.3709992258 2.6469669131 2.9144344902 1.7563855631 1.8785697967 1.8563003522 2.0024758186 1.9913306621 1.9779583789 
2.1243706857 2.1243706857 2.1243706857 2.1243706857 2.2408671392 2.2510113037 2.2630782103 2.2776669786 2.295651703 
2.3494282469 2.3680303173 2.3899057108 2.4159740166 2.4475202889 2.486385773 2.448570738 2.4736848652 2.5028148801 
2.5369440334 2.5773755784 2.6258554882 2.6847397011 2.5377803997 2.5675431237 2.6015718084 2.6407557529 2.6862098746 
2.7393287203 2.8018393335 2.8758309421 1.6743954455 1.6743954455 1.7840462375 1.6743954455 1.7840462375 1.8974821136 
1.6743954455 1.7840462375 1.8974821136 2.0119052671 1.6743954455 1.7840462375 1.8974821136 2.0119052671 2.1243706857 
1.6743954455 1.7840462375 1.8974821136 2.0119052671 2.1243706857 2.232221744 1.6743954455 1.7840462375 1.8974821136 
2.0119052671 2.1243706857 2.232221744 2.3334263672 1.6743954455 1.7840462375 1.8974821136 2.0119052671 2.1243706857 
2.232221744 2.3334263672 2.426721652 1.4671972081 1.3575464161 1.4671972081 1.24411054 1.3575464161 1.4671972081 
1.1296873865 1.24411054 1.3575464161 1.4671972081 1.0172219679 1.1296873865 1.24411054 1.3575464161 1.4671972081 
0.90937090954 1.0172219679 1.1296873865 1.24411054 1.3575464161 1.4671972081 0.80816628637 0.90937090954 1.0172219679 
1.1296873865 1.24411054 1.3575464161 1.4671972081 0.71487100155 0.80816628637 0.90937090954 1.0172219679 1.1296873865 
1.24411054 1.3575464161 1.4671972081 0.60381225391 0.57404952988 0.69302191562 0.54002084522 0.66790778838 0.79216440667 
0.50083690068 0.63877777351 0.77356233629 0.90072551443 0.45538277901 0.60464862014 0.75168694275 0.89058134991 1.0172219679 
0.40226393329 0.56421707518 0.72561863695 0.87851444325 1.0172219679 1.139116835 0.33975332011 0.51573716537 0.69407236469 
0.86392567495 1.0172219679 1.1502619915 1.2630228569 0.26576171152 0.45685295248 0.6552068806 0.84594095064 1.0172219679 
1.1636342747 1.2852923014 1.3852070904 0.22715816343 0.3129712797 0.49462574053 0.49462574053 0.68021497688 0.77059342779 
1.0172219679 1.0172219679 1.0172219679 1.0172219679 2.1243706857 1.5707963268 1.3676273807 1.271087727 1.2156949949 
2.6469669131 2.1243706857 1.7739652728 1.5707963268 1.447813335 1.3676273807 2.8286213739 2.4613776767 2.1243706857 
1.8705049266 1.6937793186 1.5707963268 1.4827341049 2.9144344902 2.6469669131 2.3709992258 2.1243706857 1.9258976586 
1.7739652728 1.6588585487 1.5707963268 1.7563855631 1.8563003522 1.8785697967 1.9779583789 1.9913306621 2.0024758186 
2.1243706857 2.1243706857 2.1243706857 2.1243706857 2.295651703 2.2776669786 2.2630782103 2.2510113037 2.2408671392 
2.486385773 2.4475202889 2.4159740166 2.3899057108 2.3680303173 2.3494282469 2.6847397011 2.6258554882 2.5773755784 
2.5369440334 2.5028148801 2.4736848652 2.448570738 2.8758309421 2.8018393335 2.7393287203 2.6862098746 2.6407557529 
2.6015718084 2.5675431237 2.5377803997 5.8604937156 5.901393709 5.9723133995 5.9473927383 6.0216547488 6.0927478736 
5.9992719463 6.0767621038 6.1501452836 6.2190157008 6.0578962336 6.1383094565 6.2134963469 0 0.064169606361 
6.1241815303 6.206940195 6.2831853072 0.069688960264 0.13304002361 0.19043743361 6.1990255847 0 0.07624511221 
0.14487585072 0.20642320337 0.26153055843 0.3108719077 0 0.084159722458 0.15900377685 0.22528907359 0.28391336087 
0.3357925689 0.38179159818 0.42269159155 5.8604937156 5.9723133995 5.901393709 6.0927478736 6.0216547488 5.9473927383 
6.2190157008 6.1501452836 6.0767621038 5.9992719463 0.064169606361 0 6.2134963469 6.1383094565 6.0578962336 
0.19043743361 0.13304002361 0.069688960264 6.2831853072 6.206940195 6.1241815303 0.3108719077 0.26153055843 0.20642320337 
0.14487585072 0.07624511221 6.2831853072 6.1990255847 0.42269159155 0.38179159818 0.3357925689 0.28391336087 0.22528907359 
0.15900377685 0.084159722458 0 5.6793730533 5.7091357773 5.5901633916 5.743164462 5.6152775188 5.4910209005 
5.7823484065 5.6444075337 5.5096229709 5.3824597928 5.8278025282 5.678536687 5.5314983644 5.3926039573 5.2659633393 
5.8809213739 5.718968232 5.5575666702 5.4046708639 5.2659633393 5.1440684722 5.9434319871 5.7674481418 5.5891129425 
5.4192596322 5.2659633393 5.1329233157 5.0201624502 6.0174235957 5.8263323547 5.6279784266 5.4372443565 5.2659633393 
5.1195510325 4.9978930058 4.8979782167 1.3852070904 1.2852923014 1.2630228569 1.1636342747 1.1502619915 1.139116835 
1.0172219679 1.0172219679 1.0172219679 1.0172219679 0.84594095064 0.86392567495 0.87851444325 0.89058134991 0.90072551443 
0.6552068806 0.69407236469 0.72561863695 0.75168694275 0.77356233629 0.79216440667 0.45685295248 0.51573716537 0.56421707518 
0.60464862014 0.63877777351 0.66790778838 0.69302191562 0.26576171152 0.33975332011 0.40226393329 0.45538277901 0.50083690068 
0.54002084522 0.57404952988 0.60381225391 
_paraPhiHalf 1 1002 double
0 3.1415926536 0 3.1415926536 1.5707963268 1.5707963268 1.5707963268 1.5707963268 2.5880182947 
0.5535743589 2.5880182947 0.5535743589 0 0 0 0 3.1415926536 3.1415926536 
3.1415926536 3.1415926536 3.1415926536 0.17788134 0.38438696014 0.60631181711 0.82323535693 1.0172219679 1.1799687454 
1.3118704726 1.4175000338 1.5022335207 0.17788134 0.38438696014 0.60631181711 0.82323535693 1.0172219679 1.1799687454 
1.3118704726 1.4175000338 1.5022335207 0.093902416448 0.17615329733 0.2478725152 0.31035131605 0.36486382811 0.41257334776 
0.45449736604 0.4915044461 0.52432611754 0.093902416448 0.17615329733 0.2478725152 0.31035131605 0.36486382811 0.41257334776 
0.45449736604 0.4915044461 0.52432611754 2.9637113136 2.7572056934 2.5352808365 2.3183572967 2.1243706857 1.9616239082 
1.829722181 1.7240926197 1.6393591329 2.9637113136 2.7572056934 2.5352808365 2.3183572967 2.1243706857 1.9616239082 
1.829722181 1.7240926197 1.6393591329 3.0476902371 2.9654393563 2.8937201384 2.8312413375 2.7767288255 2.7290193058 
2.6870952876 2.6500882075 2.617266536 3.0476902371 2.9654393563 2.8937201384 2.8312413375 2.7767288255 2.7290193058 
2.6870952876 2.6500882075 2.617266536 0 0 0 0 3.1415926536 3.1415926536 
3.1415926536 3.1415926536 3.1415926536 0.17788134 0.38438696014 0.60631181711 0.82323535693 1.0172219679 1.1799687454 
1.3118704726 1.4175000338 1.5022335207 0.17788134 0.38438696014 0.60631181711 0.82323535693 1.0172219679 1.1799687454 
1.3118704726 1.4175000338 1.5022335207 0.093902416448 0.17615329733 0.2478725152 0.31035131605 0.36486382811 0.41257334776 
0.45449736604 0.4915044461 0.52432611754 0.093902416448 0.17615329733 0.2478725152 0.31035131605 0.36486382811 0.41257334776 
0.45449736604 0.4915044461 0.52432611754 2.9637113136 2.7572056934 2.5352808365 2.3183572967 2.1243706857 1.9616239082 
1.829722181 1.7240926197 1.6393591329 2.9637113136 2.7572056934 2.5352808365 2.3183572967 2.1243706857 1.9616239082 
1.829722181 1.7240926197 1.6393591329 3.0476902371 2.9654393563 2.8937201384 2.8312413375 2.7767288255 2.7290193058 
2.6870952876 2.6500882075 2.617266536 3.0476902371 2.9654393563 2.8937201384 2.8312413375 2.7767288255 2.7290193058 
2.6870952876 2.6500882075 2.617266536 1.5707963268 1.5707963268 1.5707963268 1.5707963268 1.5707963268 1.5707963268 
1.5707963268 1.5707963268 1.5707963268 1.6743954455 1.7840462375 1.8974821136 2.0119052671 2.1243706857 2.232221744 
2.3334263672 2.426721652 2.5115728246 1.4671972081 1.3575464161 1.24411054 1.1296873865 1.0172219679 0.90937090954 
0.80816628637 0.71487100155 0.63001982895 1.6743954455 1.7840462375 1.8974821136 2.0119052671 2.1243706857 2.232221744 
2.3334263672 2.426721652 2.5115728246 1.4671972081 1.3575464161 1.24411054 1.1296873865 1.0172219679 0.90937090954 
0.80816628637 0.71487100155 0.63001982895 1.5707963268 1.5707963268 1.5707963268 1.5707963268 1.5707963268 1.5707963268 
1.5707963268 1.5707963268 1.5707963268 1.6743954455 1.7840462375 1.8974821136 2.0119052671 2.1243706857 2.232221744 
2.3334263672 2.426721652 2.5115728246 1.4671972081 1.3575464161 1.24411054 1.1296873865 1.0172219679 0.90937090954 
0.80816628637 0.71487100155 0.63001982895 1.6743954455 1.7840462375 1.8974821136 2.0119052671 2.1243706857 2.232221744 
2.3334263672 2.426721652 2.5115728246 1.4671972081 1.3575464161 1.24411054 1.1296873865 1.0172219679 0.90937090954 
0.80816628637 0.71487100155 0.63001982895 2.6824132222 2.7864913217 2.8992382033 3.0186096618 3.1415926536 3.0186096618 
2.8992382033 2.7864913217 2.6824132222 0.45917943135 0.35510133185 0.2423544503 0.12298299178 0 0.12298299178 
0.2423544503 0.35510133185 0.45917943135 0.22715816343 0.49462574053 0.3129712797 0.77059342779 0.68021497688 0.49462574053 
1.0172219679 1.0172219679 1.0172219679 1.0172219679 1.2156949949 1.271087727 1.3676273807 1.5707963268 2.1243706857 
1.3676273807 1.447813335 1.5707963268 1.7739652728 2.1243706857 2.6469669131 1.4827341049 1.5707963268 1.6937793186 
1.8705049266 2.1243706857 2.4613776767 2.8286213739 1.5707963268 1.6588585487 1.7739652728 1.9258976586 2.1243706857 
2.3709992258 2.6469669131 2.9144344902 0.26576171152 0.33975332011 0.45685295248 0.40226393329 0.51573716537 0.6552068806 
0.45538277901 0.56421707518 0.69407236469 0.84594095064 0.50083690068 0.60464862014 0.72561863695 0.86392567495 1.0172219679 
0.54002084522 0.63877777351 0.75168694275 0.87851444325 1.0172219679 1.1636342747 0.57404952988 0.66790778838 0.77356233629 
0.89058134991 1.0172219679 1.1502619915 1.2852923014 0.60381225391 0.69302191562 0.79216440667 0.90072551443 1.0172219679 
1.139116835 1.2630228569 1.3852070904 0.71487100155 0.80816628637 0.80816628637 0.90937090954 0.90937090954 0.90937090954 
1.0172219679 1.0172219679 1.0172219679 1.0172219679 1.1296873865 1.1296873865 1.1296873865 1.1296873865 1.1296873865 
1.24411054 1.24411054 1.24411054 1.24411054 1.24411054 1.24411054 1.3575464161 1.3575464161 1.3575464161 
1.3575464161 1.3575464161 1.3575464161 1.3575464161 1.4671972081 1.4671972081 1.4671972081 1.4671972081 1.4671972081 
1.4671972081 1.4671972081 1.4671972081 1.6743954455 1.6743954455 1.7840462375 1.6743954455 1.7840462375 1.8974821136 
1.6743954455 1.7840462375 1.8974821136 2.0119052671 1.6743954455 1.7840462375 1.8974821136 2.0119052671 2.1243706857 
1.6743954455 1.7840462375 1.8974821136 2.0119052671 2.1243706857 2.232221744 1.6743954455 1.7840462375 1.8974821136 
2.0119052671 2.1243706857 2.232221744 2.3334263672 1.6743954455 1.7840462375 1.8974821136 2.0119052671 2.1243706857 
2.232221744 2.3334263672 2.426721652 1.7563855631 1.8785697967 1.8563003522 2.0024758186 1.9913306621 1.9779583789 
2.1243706857 2.1243706857 2.1243706857 2.1243706857 2.2408671392 2.2510113037 2.2630782103 2.2776669786 2.295651703 
2.3494282469 2.3680303173 2.3899057108 2.4159740166 2.4475202889 2.486385773 2.448570738 2.4736848652 2.5028148801 
2.5369440334 2.5773755784 2.6258554882 2.6847397011 2.5377803997 2.5675431237 2.6015718084 2.6407557529 2.6862098746 
2.7393287203 2.8018393335 2.8758309421 2.718901062 2.8307207459 2.7598010554 2.95115522 2.8800620952 2.8058000847 
3.0774230472 3.00855263 2.9351694502 2.8576792927 3.0774230472 3.1415926536 3.0719036933 2.9967168029 2.91630358 
2.95115522 3.00855263 3.0719036933 3.1415926536 3.0653475414 2.9825888767 2.8307207459 2.8800620952 2.9351694502 
2.9967168029 3.0653475414 3.1415926536 3.0574329311 2.718901062 2.7598010554 2.8058000847 2.8576792927 2.91630358 
2.9825888767 3.0574329311 3.1415926536 2.718901062 2.7598010554 2.8307207459 2.8058000847 2.8800620952 2.95115522 
2.8576792927 2.9351694502 3.00855263 3.0774230472 2.91630358 2.9967168029 3.0719036933 3.1415926536 3.0774230472 
2.9825888767 3.0653475414 3.1415926536 3.0719036933 3.00855263 2.95115522 3.0574329311 3.1415926536 3.0653475414 