# vtk DataFile Version 5.1
vtk output
ASCII
DATASET POLYDATA
POINTS 1002 float
-11.8661 -0.472925 -2.56178 -23.4239 -13.1978 -5.14592 -11.1898 -3.5264 3.76494 
-22.227 -14.1287 0.33279 -15.3617 -7.71831 -3.03606 -14.0197 -8.62806 0.27605 
-21.1737 -3.26584 -1.09676 -21.9242 -5.03007 3.15678 -20.6397 -24.9304 -4.96 
-2.27187 -2.91296 -0.039672 -28.0808 -16.9667 -2.51492 -11.0547 3.667 1.98507 
-12.8381 -1.13225 -2.67006 -14.0215 -1.90102 -2.84531 -15.3958 -2.84938 -3.00667 
-16.879 -4.13018 -3.07827 -18.4501 -5.73839 -3.19302 -20.0219 -7.43104 -3.52006 
-21.3407 -9.04147 -3.98428 -22.2777 -10.5577 -4.43933 -22.933 -11.9528 -4.83597 
-11.6748 -0.902005 -2.77179 -11.5412 -1.40337 -2.97884 -11.533 -2.07086 -3.12585 
-11.6467 -2.84708 -3.24202 -11.7713 -3.52483 -3.41368 -11.972 -4.2049 -3.56995 
-12.54 -5.12975 -3.56114 -13.4956 -6.13601 -3.40287 -14.513 -6.97915 -3.20621 
-12.672 -0.443725 -2.43208 -13.594 -0.467023 -2.32723 -14.6044 -0.584993 -2.19074 
-15.649 -0.769957 -2.01652 -16.7109 -1.01441 -1.85959 -17.7635 -1.3818 -1.70689 
-18.7307 -1.85058 -1.53265 -19.6025 -2.33201 -1.37123 -20.4207 -2.8025 -1.23049 
-10.8042 -0.135105 -2.63122 -9.62126 0.121346 -2.67178 -8.30732 0.211236 -2.55977 
-6.86346 0.115117 -2.33614 -5.34368 -0.137596 -2.15336 -3.98227 -0.552797 -1.96533 
-3.03026 -1.11856 -1.61286 -2.48756 -1.74499 -1.11078 -2.24646 -2.3515 -0.566729 
-11.4498 0.174211 -2.38165 -11.0537 0.829822 -2.15183 -10.7341 1.45071 -1.832 
-10.5115 2.04963 -1.42597 -10.3544 2.61325 -0.971387 -10.3258 3.06537 -0.455618 
-10.4734 3.42953 0.164276 -10.6875 3.72229 0.843075 -10.8796 3.81711 1.46922 
-22.9715 -13.2129 -5.22505 -22.4188 -13.1769 -5.24992 -21.7529 -13.0601 -5.17676 
-21.0416 -12.8124 -4.98271 -20.3289 -12.4343 -4.69331 -19.5766 -11.8957 -4.33036 
-18.7698 -11.0459 -3.89397 -17.8518 -9.86671 -3.46167 -16.7045 -8.64597 -3.16296 
-23.557 -12.3762 -4.86327 -23.6403 -11.4261 -4.52246 -23.6329 -10.3415 -4.12978 
-23.4816 -9.17787 -3.70362 -23.1945 -8.00645 -3.25499 -22.8191 -6.87665 -2.77346 
-22.3852 -5.83746 -2.28642 -21.9424 -4.89833 -1.84826 -21.5406 -4.03676 -1.46269 
-23.5505 -14.475 -5.43518 -23.5731 -15.9003 -5.66265 -23.4792 -17.4423 -5.84162 
-23.2798 -19.0564 -5.97782 -23.0018 -20.6256 -6.07814 -22.6299 -22.0151 -6.20525 
-22.0847 -23.2256 -6.31184 -21.4149 -24.2216 -6.16995 -20.8716 -24.8184 -5.66938 
-23.968 -13.9064 -5.21885 -24.5408 -14.6324 -5.23174 -25.1135 -15.3845 -5.18777 
-25.6859 -16.1288 -5.0541 -26.2487 -16.7309 -4.78136 -26.7583 -17.0926 -4.43153 
-27.2296 -17.2862 -4.07729 -27.6714 -17.3684 -3.64863 -27.9844 -17.2703 -3.09892 
-12.2595 -4.10697 3.80682 -13.4142 -4.80323 3.81437 -14.6765 -5.63112 3.6974 
-16.1045 -6.57416 3.36103 -17.5923 -7.68492 2.87999 -18.9194 -8.98091 2.33325 
-20.0264 -10.3251 1.70586 -20.9512 -11.6255 1.10664 -21.6813 -12.9009 0.663283 
-11.1561 -3.98671 3.55877 -11.155 -4.48062 3.30904 -11.2279 -5.01293 2.99997 
-11.3642 -5.61309 2.68918 -11.5752 -6.2672 2.38523 -11.9225 -6.8516 1.97605 
-12.3938 -7.30078 1.47189 -12.9091 -7.72272 1.01366 -13.4442 -8.18833 0.633214 
-11.8811 -3.44624 4.01831 -12.7031 -3.42335 4.26518 -13.7964 -3.44629 4.36424 
-15.1668 -3.53505 4.28557 -16.6182 -3.73071 4.20951 -18.0078 -3.99595 4.18843 
-19.2844 -4.25845 4.05632 -20.3618 -4.51266 3.78109 -21.218 -4.77431 3.4676 
-10.1019 -3.27394 3.5711 -8.93774 -3.04454 3.3231 -7.77047 -2.85031 3.01437 
-6.63738 -2.72996 2.66146 -5.537 -2.69464 2.26928 -4.4993 -2.71688 1.88904 
-3.58251 -2.76816 1.55646 -2.86368 -2.83074 1.15855 -2.42125 -2.88578 0.600145 
-10.5567 -2.8515 3.82769 -9.90632 -2.03588 3.82371 -9.32524 -1.10233 3.76177 
-8.92288 -0.0805827 3.68419 -8.7586 0.944313 3.56998 -8.83773 1.80953 3.34842 
-9.19351 2.47522 3.03287 -9.80184 3.02022 2.69758 -10.4821 3.4363 2.3579 
-21.7442 -13.9544 0.248017 -21.2108 -13.6833 0.191492 -20.5835 -13.2893 0.159974 
-19.8652 -12.7718 0.155871 -19.0917 -12.0942 0.200397 -18.2379 -11.2001 0.260152 
-17.2659 -10.2284 0.312368 -16.1932 -9.4419 0.368532 -15.0804 -8.93413 0.374191 
-22.4021 -13.5044 0.623341 -22.5578 -12.8083 0.937603 -22.6773 -11.9731 1.26515 
-22.7688 -11.0022 1.5976 -22.835 -10.0279 1.94599 -22.8446 -9.03945 2.28757 
-22.7554 -7.94167 2.58053 -22.5601 -6.85429 2.82341 -22.2783 -5.9025 3.02002 
-22.396 -15.2961 -0.0775409 -22.5495 -16.5622 -0.580007 -22.6683 -17.8938 -1.09343 
-22.6628 -19.3637 -1.52554 -22.5022 -20.9659 -1.89344 -22.2633 -22.4436 -2.25335 
-21.9451 -23.6024 -2.69943 -21.4829 -24.45 -3.36322 -20.9776 -24.9261 -4.19529 
-22.8359 -14.9366 0.174985 -23.4969 -15.6631 -0.0663219 -24.1806 -16.2619 -0.360599 
-24.9089 -16.7845 -0.577971 -25.7243 -17.2143 -0.706688 -26.5058 -17.4208 -0.90246 
-27.1116 -17.4018 -1.23574 -27.5769 -17.3043 -1.64334 -27.9226 -17.1827 -2.07678 
-14.9432 -7.74333 -2.89049 -14.5327 -7.80358 -2.69706 -14.215 -7.90949 -2.46275 
-13.9366 -8.05923 -2.19933 -13.6717 -8.22196 -1.86072 -13.5484 -8.35947 -1.42432 
-13.5807 -8.48788 -0.956218 -13.6636 -8.61668 -0.501916 -13.7996 -8.67915 -0.0782308 
-16.9142 -9.28307 -3.03876 -18.1729 -11.5363 -3.36617 -18.8947 -13.9065 -3.98999 
-19.1153 -15.8457 -4.63886 -19.2934 -17.6353 -5.04298 -19.7459 -19.6209 -5.17961 
-20.169 -21.492 -5.21134 -20.2942 -23.0126 -5.23908 -20.3567 -24.1947 -5.19092 
-13.3666 -6.83695 -3.14468 -11.3671 -6.43481 -3.23328 -9.66883 -6.00648 -3.04757 
-8.15597 -5.34174 -2.60151 -6.65502 -4.83941 -2.14704 -5.27067 -4.61418 -1.8168 
-4.09464 -4.34292 -1.51869 -3.15646 -3.92824 -1.11464 -2.54348 -3.44518 -0.58613 
-15.3345 -9.32111 -0.0474329 -16.7494 -10.5325 -0.538902 -18.0767 -12.5038 -1.22733 
-19.12 -15.0248 -1.98503 -19.7484 -17.5515 -2.60178 -20.0507 -19.7752 -3.03321 
-20.2399 -21.6733 -3.42 -20.36 -23.2092 -3.87566 -20.4333 -24.3066 -4.40876 
-12.6094 -8.19938 0.323261 -11.1873 -7.78238 0.367164 -9.77422 -7.3041 0.42699 
-8.30703 -6.85916 0.438674 -6.81493 -6.52354 0.425813 -5.46861 -6.15992 0.458231 
-4.33842 -5.57063 0.452785 -3.38415 -4.74424 0.331373 -2.66547 -3.81915 0.14925 
-21.3659 -3.10449 -0.7537 -21.4945 -2.95196 -0.333265 -21.6093 -2.84853 0.172077 
-21.7673 -2.85124 0.77482 -21.8872 -2.97373 1.40744 -21.9207 -3.20619 1.94222 
-21.9689 -3.57946 2.35812 -22.0434 -4.08034 2.70655 -22.0416 -4.59657 2.98111 
-22.1508 -4.23031 -1.22249 -23.1976 -5.26565 -1.42455 -24.2457 -6.28851 -1.68376 
-25.2328 -7.50663 -1.96096 -26.1491 -9.28273 -2.28845 -26.9644 -11.436 -2.63407 
-27.5783 -13.3669 -2.81761 -27.9389 -14.8493 -2.78207 -28.0882 -16.0176 -2.65111 
-20.3361 -2.258 -0.79285 -19.4243 -1.23043 -0.440495 -18.4404 -0.170242 -0.0584109 
-17.3985 0.860518 0.293658 -16.3453 1.754 0.591586 -15.2669 2.50325 0.885346 
-14.1297 3.08476 1.20911 -13.0258 3.434 1.52387 -12.0221 3.60158 1.78467 
-22.8844 -5.8599 2.75803 -23.9319 -6.84675 2.31045 -24.9406 -8.03287 1.82009 
-25.8389 -9.33456 1.30915 -26.6088 -10.6923 0.719804 -27.1984 -12.1446 -0.00991249 
-27.6081 -13.589 -0.767489 -27.8892 -14.8684 -1.428 -28.0504 -15.9847 -2.00146 
-21.0811 -3.91179 3.45353 -20.1094 -2.58675 3.69246 -18.9658 -1.23614 3.77324 
-17.6511 -0.0289409 3.70314 -16.2529 1.16802 3.62105 -14.9354 2.29346 3.54034 
-13.8064 2.95229 3.29325 -12.812 3.1918 2.85087 -11.886 3.3999 2.37844 
-21.3145 -25.229 -5.01253 -22.4133 -24.9763 -4.85909 -23.6953 -24.3118 -4.49213 
-24.8024 -23.5391 -4.06434 -25.6252 -22.6341 -3.71316 -26.3382 -21.4624 -3.41178 
-27.0487 -20.2489 -3.13543 -27.6266 -19.156 -2.91442 -27.9524 -18.0715 -2.72134 
-2.17793 -1.95341 0.138663 -2.36549 -0.908596 0.272501 -2.85449 0.0687966 0.39668 
-3.65182 0.934599 0.525791 -4.71956 1.78155 0.667071 -5.95349 2.61847 0.922684 
-7.26767 3.31846 1.31576 -8.61195 3.72565 1.66682 -9.90111 3.79643 1.86596 
-12.7683 -1.63833 -2.87818 -12.8002 -2.2469 -3.07437 -14.1126 -2.50292 -3.04392 
-12.9333 -2.97861 -3.22566 -14.2999 -3.21939 -3.21873 -15.65 -3.60335 -3.16281 
-13.1276 -3.69376 -3.38401 -14.5607 -4.00904 -3.36891 -16.0041 -4.49706 -3.30899 
-17.3067 -5.11707 -3.21277 -13.4449 -4.40143 -3.54299 -14.9964 -4.86376 -3.50113 
-16.5106 -5.52119 -3.4635 -17.8571 -6.25989 -3.41099 -19.0149 -6.93053 -3.41746 
-14.0693 -5.38325 -3.5615 -15.7179 -5.99681 -3.54197 -17.2607 -6.79713 -3.56874 
-18.5372 -7.57969 -3.65157 -19.5988 -8.23428 -3.75855 -20.5432 -8.71401 -3.87758 
-14.9979 -6.58321 -3.42251 -16.5748 -7.40725 -3.48347 -18.0365 -8.3452 -3.61459 
-19.1991 -9.11355 -3.83898 -20.0954 -9.66678 -4.10815 -20.9144 -10.0646 -4.3123 
-21.6684 -10.3493 -4.41206 -15.9508 -7.68077 -3.26181 -17.3148 -8.73874 -3.43974 
-18.5259 -9.83116 -3.71798 -19.5419 -10.6361 -4.0436 -20.3495 -11.1417 -4.39095 
-21.0763 -11.4794 -4.68712 -21.7978 -11.7065 -4.84454 -22.4294 -11.8562 -4.87388 
-10.5193 -0.568384 -2.86486 -9.22444 -0.371992 -2.88328 -10.281 -1.11553 -3.05558 
-7.78583 -0.405243 -2.71843 -8.86355 -1.01055 -3.03265 -10.2098 -1.88427 -3.15906 
-6.27264 -0.635487 -2.46879 -7.34277 -1.15246 -2.83706 -8.72294 -1.85315 -3.10002 
-10.2966 -2.73748 -3.25014 -4.86014 -1.028 -2.24631 -5.91773 -1.51457 -2.55766 
-7.22995 -2.05088 -2.88031 -8.82119 -2.75467 -3.14873 -10.3882 -3.49558 -3.3972 
-3.75385 -1.59318 -1.96365 -4.76824 -2.07485 -2.26191 -6.00264 -2.52463 -2.56843 
-7.48536 -3.0209 -2.88706 -9.04424 -3.66687 -3.22738 -10.635 -4.34731 -3.50455 
-3.02126 -2.24684 -1.56101 -3.92079 -2.73813 -1.92563 -5.09127 -3.17794 -2.24037 
-6.48294 -3.53968 -2.55697 -7.99466 -4.03664 -2.92725 -9.53295 -4.70884 -3.30461 
-11.3365 -5.35443 -3.48063 -2.62586 -2.87434 -1.09172 -3.3753 -3.36565 -1.54612 
-4.44095 -3.8057 -1.89608 -5.74673 -4.11448 -2.20233 -7.23166 -4.46124 -2.56559 
-8.7513 -5.08217 -3.00382 -10.3801 -5.71697 -3.32338 -12.3585 -6.21814 -3.34523 
-3.08971 -4.3679 -0.44411 -3.96846 -5.28926 -0.27986 -3.88919 -4.82202 -0.986122 
-5.05826 -6.05207 -0.167812 -4.92795 -5.63907 -0.828241 -4.98333 -5.10111 -1.37128 
-6.31266 -6.55526 -0.134001 -6.12337 -6.27884 -0.74961 -6.13026 -5.76108 -1.25619 
-6.2821 -5.24365 -1.6984 -7.75911 -6.95426 -0.0733767 -7.44496 -6.83929 -0.715069 
[...]
POINT_DATA 1002
FIELD FieldData 4
_paraPhi 1 1002 double
6.2831853072 3.1415926536 6.2831853072 3.1415926536 4.7123889804 4.7123889804 1.5707963268 1.5707963268 3.6951670125 
5.7296109483 2.5880182947 0.5535743589 6.2831853072 6.2831853072 6.2831853072 6.2831853072 3.1415926536 3.1415926536 
3.1415926536 3.1415926536 3.1415926536 6.1053039672 5.898798347 5.6768734901 5.4599499503 5.2659633393 5.1032165617 
4.9713148346 4.8656852733 4.7809517865 0.17788134 0.38438696014 0.60631181711 0.82323535693 1.0172219679 1.1799687454 
1.3118704726 1.4175000338 1.5022335207 6.1892828907 6.1070320098 6.035312792 5.9728339911 5.9183214791 5.8706119594 
5.8286879411 5.7916808611 5.7588591896 0.093902416448 0.17615329733 0.2478725152 0.31035131605 0.36486382811 0.41257334776 
0.45449736604 0.4915044461 0.52432611754 3.3194739936 3.5259796137 3.7479044707 3.9648280105 4.1588146215 4.321561399 
4.4534631262 4.5590926874 4.6438261743 2.9637113136 2.7572056934 2.5352808365 2.3183572967 2.1243706857 1.9616239082 
1.829722181 1.7240926197 1.6393591329 3.23549507 3.3177459509 3.3894651688 3.4519439696 3.5064564817 3.5541660013 
3.5960900196 3.6330970997 3.6659187711 3.0476902371 2.9654393563 2.8937201384 2.8312413375 2.7767288255 2.7290193058 
2.6870952876 2.6500882075 2.617266536 6.2831853072 6.2831853072 6.2831853072 6.2831853072 3.1415926536 3.1415926536 
3.1415926536 3.1415926536 3.1415926536 6.1053039672 5.898798347 5.6768734901 5.4599499503 5.2659633393 5.1032165617 
4.9713148346 4.8656852733 4.7809517865 0.17788134 0.38438696014 0.60631181711 0.82323535693 1.0172219679 1.1799687454 
1.3118704726 1.4175000338 1.5022335207 6.1892828907 6.1070320098 6.035312792 5.9728339911 5.9183214791 5.8706119594 
5.8286879411 5.7916808611 5.7588591896 0.093902416448 0.17615329733 0.2478725152 0.31035131605 0.36486382811 0.41257334776 
0.45449736604 0.4915044461 0.52432611754 3.3194739936 3.5259796137 3.7479044707 3.9648280105 4.1588146215 4.321561399 
4.4534631262 4.5590926874 4.6438261743 2.9637113136 2.7572056934 2.5352808365 2.3183572967 2.1243706857 1.9616239082 
1.829722181 1.7240926197 1.6393591329 3.23549507 3.3177459509 3.3894651688 3.4519439696 3.5064564817 3.5541660013 
3.5960900196 3.6330970997 3.6659187711 3.0476902371 2.9654393563 2.8937201384 2.8312413375 2.7767288255 2.7290193058 
2.6870952876 2.6500882075 2.617266536 4.7123889804 4.7123889804 4.7123889804 4.7123889804 4.7123889804 4.7123889804 
4.7123889804 4.7123889804 4.7123889804 4.6087898617 4.4991390697 4.3857031936 4.2712800401 4.1588146215 4.0509635631 
3.94975894 3.8564636551 3.7716124825 4.8159880991 4.9256388911 5.0390747672 5.1534979207 5.2659633393 5.3738143976 
5.4750190208 5.5683143056 5.6531654782 4.6087898617 4.4991390697 4.3857031936 4.2712800401 4.1588146215 4.0509635631 
3.94975894 3.8564636551 3.7716124825 4.8159880991 4.9256388911 5.0390747672 5.1534979207 5.2659633393 5.3738143976 
5.4750190208 5.5683143056 5.6531654782 1.5707963268 1.5707963268 1.5707963268 1.5707963268 1.5707963268 1.5707963268 
1.5707963268 1.5707963268 1.5707963268 1.6743954455 1.7840462375 1.8974821136 2.0119052671 2.1243706857 2.232221744 
2.3334263672 2.426721652 2.5115728246 1.4671972081 1.3575464161 1.24411054 1.1296873865 1.0172219679 0.90937090954 
0.80816628637 0.71487100155 0.63001982895 1.6743954455 1.7840462375 1.8974821136 2.0119052671 2.1243706857 2.232221744 
2.3334263672 2.426721652 2.5115728246 1.4671972081 1.3575464161 1.24411054 1.1296873865 1.0172219679 0.90937090954 
0.80816628637 0.71487100155 0.63001982895 3.6007720849 3.4966939854 3.3839471039 3.2645756454 3.1415926536 3.0186096618 
2.8992382033 2.7864913217 2.6824132222 5.8240058758 5.9280839753 6.0408308569 6.1602023154 6.2831853072 0.12298299178 
0.2423544503 0.35510133185 0.45917943135 6.0560271438 5.7885595667 5.9702140275 5.5125918794 5.6029703303 5.7885595667 
5.2659633393 5.2659633393 5.2659633393 5.2659633393 5.0674903122 5.0120975802 4.9155579264 4.7123889804 4.1588146215 
4.9155579264 4.8353719722 4.7123889804 4.5092200343 4.1588146215 3.6362183941 4.8004512023 4.7123889804 4.5894059886 
4.4126803806 4.1588146215 3.8218076305 3.4545639333 4.7123889804 4.6243267584 4.5092200343 4.3572876485 4.1588146215 
3.9121860814 3.6362183941 3.368750817 6.0174235957 5.9434319871 5.8263323547 5.8809213739 5.7674481418 5.6279784266 
5.8278025282 5.718968232 5.5891129425 5.4372443565 5.7823484065 5.678536687 5.5575666702 5.4192596322 5.2659633393 
5.743164462 5.6444075337 5.5314983644 5.4046708639 5.2659633393 5.1195510325 5.7091357773 5.6152775188 5.5096229709 
5.3926039573 5.2659633393 5.1329233157 4.9978930058 5.6793730533 5.5901633916 5.4910209005 5.3824597928 5.2659633393 
5.1440684722 5.0201624502 4.8979782167 5.5683143056 5.4750190208 5.4750190208 5.3738143976 5.3738143976 5.3738143976 
5.2659633393 5.2659633393 5.2659633393 5.2659633393 5.1534979207 5.1534979207 5.1534979207 5.1534979207 5.1534979207 
5.0390747672 5.0390747672 5.0390747672 5.0390747672 5.0390747672 5.0390747672 4.9256388911 4.9256388911 4.9256388911 
4.9256388911 4.9256388911 4.9256388911 4.9256388911 4.8159880991 4.8159880991 4.8159880991 4.8159880991 4.8159880991 
4.8159880991 4.8159880991 4.8159880991 4.6087898617 4.6087898617 4.4991390697 4.6087898617 4.4991390697 4.3857031936 
4.6087898617 4.4991390697 4.3857031936 4.2712800401 4.6087898617 4.4991390697 4.3857031936 4.2712800401 4.1588146215 
4.6087898617 4.4991390697 4.3857031936 4.2712800401 4.1588146215 4.0509635631 4.6087898617 4.4991390697 4.3857031936 
4.2712800401 4.1588146215 4.0509635631 3.94975894 4.6087898617 4.4991390697 4.3857031936 4.2712800401 4.1588146215 
4.0509635631 3.94975894 3.8564636551 4.526799744 4.4046155105 4.426884955 4.2807094886 4.2918546451 4.3052269283 
4.1588146215 4.1588146215 4.1588146215 4.1588146215 4.042318168 4.0321740035 4.0201070968 4.0055183285 3.9875336042 
3.9337570603 3.9151549899 3.8932795963 3.8672112905 3.8356650183 3.7967995342 3.8346145692 3.809500442 3.7803704271 
3.7462412737 3.7058097288 3.657329819 3.5984456061 3.7454049075 3.7156421835 3.6816134988 3.6424295543 3.5969754326 
3.5438565869 3.4813459737 3.4073543651 3.5642842451 3.4524645613 3.5233842518 3.3320300872 3.403123212 3.4773852225 
3.20576226 3.2746326772 3.348015857 3.4255060145 3.0774230472 3.1415926536 3.2112816139 3.2864685043 3.3668817272 
2.95115522 3.00855263 3.0719036933 3.1415926536 3.2178377658 3.3005964304 2.8307207459 2.8800620952 2.9351694502 
2.9967168029 3.0653475414 3.1415926536 3.225752376 2.718901062 2.7598010554 2.8058000847 2.8576792927 2.91630358 
2.9825888767 3.0574329311 3.1415926536 3.5642842451 3.5233842518 3.4524645613 3.4773852225 3.403123212 3.3320300872 
3.4255060145 3.348015857 3.2746326772 3.20576226 3.3668817272 3.2864685043 3.2112816139 3.1415926536 3.0774230472 
3.3005964304 3.2178377658 3.1415926536 3.0719036933 3.00855263 2.95115522 3.225752376 3.1415926536 3.0653475414 
2.9967168029 2.9351694502 2.8800620952 2.8307207459 3.1415926536 3.0574329311 2.9825888767 2.91630358 2.8576792927 
2.8058000847 2.7598010554 2.718901062 4.526799744 4.426884955 4.4046155105 4.3052269283 4.2918546451 4.2807094886 
4.1588146215 4.1588146215 4.1588146215 4.1588146215 3.9875336042 4.0055183285 4.0201070968 4.0321740035 4.042318168 
3.7967995342 3.8356650183 3.8672112905 3.8932795963 3.9151549899 3.9337570603 3.5984456061 3.657329819 3.7058097288 
3.7462412737 3.7803704271 3.809500442 3.8346145692 3.4073543651 3.4813459737 3.5438565869 3.5969754326 3.6424295543 
3.6816134988 3.7156421835 3.7454049075 4.7123889804 4.8004512023 4.6243267584 4.9155579264 4.7123889804 4.5092200343 
5.0674903122 4.8353719722 4.5894059886 4.3572876485 5.2659633393 5.0120975802 4.7123889804 4.4126803806 4.1588146215 
5.5125918794 5.2659633393 4.9155579264 4.5092200343 4.1588146215 3.9121860814 5.7885595667 5.6029703303 5.2659633393 
4.7123889804 4.1588146215 3.8218076305 3.6362183941 6.0560271438 5.9702140275 5.7885595667 5.2659633393 4.1588146215 
3.6362183941 3.4545639333 3.368750817 0.22715816343 0.49462574053 0.3129712797 0.77059342779 0.68021497688 0.49462574053 
1.0172219679 1.0172219679 1.0172219679 1.0172219679 1.2156949949 1.271087727 1.3676273807 1.5707963268 2.1243706857 
1.3676273807 1.447813335 1.5707963268 1.7739652728 2.1243706857 2.6469669131 1.4827341049 1.5707963268 1.6937793186 
1.8705049266 2.1243706857 2.4613776767 2.8286213739 1.5707963268 1.6588585487 1.7739652728 1.9258976586 2.1243706857 
2.3709992258 2.6469669131 2.9144344902 1.7563855631 1.8785697967 1.8563003522 2.0024758186 1.9913306621 1.9779583789 
2.1243706857 2.1243706857 2.1243706857 2.1243706857 2.2408671392 2.2510113037 2.2630782103 2.2776669786 2.295651703 
2.3494282469 2.3680303173 2.3899057108 2.4159740166 2.4475202889 2.486385773 2.448570738 2.4736848652 2.5028148801 
2.5369440334 2.5773755784 2.6258554882 2.6847397011 2.5377803997 2.5675431237 2.6015718084 2.6407557529 2.6862098746 
2.7393287203 2.8018393335 2.8758309421 1.6743954455 1.6743954455 1.7840462375 1.6743954455 1.7840462375 1.8974821136 
1.6743954455 1.7840462375 1.8974821136 2.0119052671 1.6743954455 1.7840462375 1.8974821136 2.0119052671 2.1243706857 
1.6743954455 1.7840462375 1.8974821136 2.0119052671 2.1243706857 2.232221744 1.6743954455 1.7840462375 1.8974821136 
2.0119052671 2.1243706857 2.232221744 2.3334263672 1.6743954455 1.7840462375 1.8974821136 2.0119052671 2.1243706857 
2.232221744 2.3334263672 2.426721652 1.4671972081 1.3575464161 1.4671972081 1.24411054 1.3575464161 1.4671972081 
1.1296873865 1.24411054 1.3575464161 1.4671972081 1.0172219679 1.1296873865 1.24411054 1.3575464161 1.4671972081 
0.90937090954 1.0172219679 1.1296873865 1.24411054 1.3575464161 1.4671972081 0.80816628637 0.90937090954 1.0172219679 
1.1296873865 1.24411054 1.3575464161 1.4671972081 0.71487100155 0.80816628637 0.90937090954 1.0172219679 1.1296873865 
1.24411054 1.3575464161 1.4671972081 0.60381225391 0.57404952988 0.69302191562 0.54002084522 0.66790778838 0.79216440667 
0.50083690068 0.63877777351 0.77356233629 0.90072551443 0.45538277901 0.60464862014 0.75168694275 0.89058134991 1.0172219679 
0.40226393329 0.56421707518 0.72561863695 0.87851444325 1.0172219679 1.139116835 0.33975332011 0.51573716537 0.69407236469 
0.86392567495 1.0172219679 1.1502619915 1.2630228569 0.26576171152 0.45685295248 0.6552068806 0.84594095064 1.0172219679 
1.1636342747 1.2852923014 1.3852070904 0.22715816343 0.3129712797 0.49462574053 0.49462574053 0.68021497688 0.77059342779 
1.0172219679 1.0172219679 1.0172219679 1.0172219679 2.1243706857 1.5707963268 1.3676273807 1.271087727 1.2156949949 
2.6469669131 2.1243706857 1.7739652728 1.5707963268 1.447813335 1.3676273807 2.8286213739 2.4613776767 2.1243706857 
1.8705049266 1.6937793186 1.5707963268 1.4827341049 2.9144344902 2.6469669131 2.3709992258 2.1243706857 1.9258976586 
1.7739652728 1.6588585487 1.5707963268 1.7563855631 1.8563003522 1.8785697967 1.9779583789 1.9913306621 2.0024758186 
2.1243706857 2.1243706857 2.1243706857 2.1243706857 2.295651703 2.2776669786 2.2630782103 2.2510113037 2.2408671392 
2.486385773 2.4475202889 2.4159740166 2.3899057108 2.3680303173 2.3494282469 2.6847397011 2.6258554882 2.5773755784 
2.5369440334 2.5028148801 2.4736848652 2.448570738 2.8758309421 2.8018393335 2.7393287203 2.6862098746 2.6407557529 
2.6015718084 2.5675431237 2.5377803997 5.8604937156 5.901393709 5.9723133995 5.9473927383 6.0216547488 6.0927478736 
5.9992719463 6.0767621038 6.1501452836 6.2190157008 6.0578962336 6.1383094565 6.2134963469 0 0.064169606361 
6.1241815303 6.206940195 6.2831853072 0.069688960264 0.13304002361 0.19043743361 6.1990255847 0 0.07624511221 
0.14487585072 0.20642320337 0.26153055843 0.3108719077 0 0.084159722458 0.15900377685 0.22528907359 0.28391336087 
0.3357925689 0.38179159818 0.42269159155 5.8604937156 5.9723133995 5.901393709 6.0927478736 6.0216547488 5.9473927383 
6.2190157008 6.1501452836 6.0767621038 5.9992719463 0.064169606361 0 6.2134963469 6.1383094565 6.0578962336 
0.19043743361 0.13304002361 0.069688960264 6.2831853072 6.206940195 6.1241815303 0.3108719077 0.26153055843 0.20642320337 
0.14487585072 0.07624511221 6.2831853072 6.1990255847 0.42269159155 0.38179159818 0.3357925689 0.28391336087 0.22528907359 
0.15900377685 0.084159722458 0 5.6793730533 5.7091357773 5.5901633916 5.743164462 5.6152775188 5.4910209005 
5.7823484065 5.6444075337 5.5096229709 5.3824597928 5.8278025282 5.678536687 5.5314983644 5.3926039573 5.2659633393 
5.8809213739 5.718968232 5.5575666702 5.4046708639 5.2659633393 5.1440684722 5.9434319871 5.7674481418 5.5891129425 
5.4192596322 5.2659633393 5.1329233157 5.0201624502 6.0174235957 5.8263323547 5.6279784266 5.4372443565 5.2659633393 
5.1195510325 4.9978930058 4.8979782167 1.3852070904 1.2852923014 1.2630228569 1.1636342747 1.1502619915 1.139116835 
1.0172219679 1.0172219679 1.0172219679 1.0172219679 0.84594095064 0.86392567495 0.87851444325 0.89058134991 0.90072551443 
0.6552068806 0.69407236469 0.72561863695 0.75168694275 0.77356233629 0.79216440667 0.45685295248 0.51573716537 0.56421707518 
0.60464862014 0.63877777351 0.66790778838 0.69302191562 0.26576171152 0.33975332011 0.40226393329 0.45538277901 0.50083690068 
0.54002084522 0.57404952988 0.60381225391 
_paraPhiHalf 1 1002 double
0 3.1415926536 0 3.1415926536 1.5707963268 1.5707963268 1.5707963268 1.5707963268 2.5880182947 
0.5535743589 2.5880182947 0.5535743589 0 0 0 0 3.1415926536 3.1415926536 
3.1415926536 3.1415926536 3.1415926536 0.17788134 0.38438696014 0.60631181711 0.82323535693 1.0172219679 1.1799687454 
1.3118704726 1.4175000338 1.5022335207 0.17788134 0.38438696014 0.60631181711 0.82323535693 1.0172219679 1.1799687454 
1.3118704726 1.4175000338 1.5022335207 0.093902416448 0.17615329733 0.2478725152 0.31035131605 0.36486382811 0.41257334776 
0.45449736604 0.4915044461 0.52432611754 0.093902416448 0.17615329733 0.2478725152 0.31035131605 0.36486382811 0.41257334776 
0.45449736604 0.4915044461 0.52432611754 2.9637113136 2.7572056934 2.5352808365 2.3183572967 2.1243706857 1.9616239082 
1.829722181 1.7240926197 1.6393591329 2.9637113136 2.7572056934 2.5352808365 2.3183572967 2.1243706857 1.9616239082 
1.829722181 1.7240926197 1.6393591329 3.0476902371 2.9654393563 2.8937201384 2.8312413375 2.7767288255 2.7290193058 
2.6870952876 2.6500882075 2.617266536 3.0476902371 2.9654393563 2.8937201384 2.8312413375 2.7767288255 2.7290193058 
2.6870952876 2.6500882075 2.617266536 0 0 0 0 3.1415926536 3.1415926536 
3.1415926536 3.1415926536 3.1415926536 0.17788134 0.38438696014 0.60631181711 0.82323535693 1.0172219679 1.1799687454 
1.3118704726 1.4175000338 1.5022335207 0.17788134 0.38438696014 0.60631181711 0.82323535693 1.0172219679 1.1799687454 
1.3118704726 1.4175000338 1.5022335207 0.093902416448 0.17615329733 0.2478725152 0.31035131605 0.36486382811 0.41257334776 
0.45449736604 0.4915044461 0.52432611754 0.093902416448 0.17615329733 0.2478725152 0.31035131605 0.36486382811 0.41257334776 
0.45449736604 0.4915044461 0.52432611754 2.9637113136 2.7572056934 2.5352808365 2.3183572967 2.1243706857 1.9616239082 
1.829722181 1.7240926197 1.6393591329 2.9637113136 2.7572056934 2.5352808365 2.3183572967 2.1243706857 1.9616239082 
1.829722181 1.7240926197 1.6393591329 3.0476902371 2.9654393563 2.8937201384 2.8312413375 2.7767288255 2.7290193058 
2.6870952876 2.6500882075 2.617266536 3.0476902371 2.9654393563 2.8937201384 2.8312413375 2.7767288255 2.7290193058 
2.6870952876 2.6500882075 2.617266536 1.5707963268 1.5707963268 1.5707963268 1.5707963268 1.5707963268 1.5707963268 
1.5707963268 1.5707963268 1.5707963268 1.6743954455 1.7840462375 1.8974821136 2.0119052671 2.1243706857 2.232221744 
2.3334263672 2.426721652 2.5115728246 1.4671972081 1.3575464161 1.24411054 1.1296873865 1.0172219679 0.90937090954 
0.80816628637 0.71487100155 0.63001982895 1.6743954455 1.7840462375 1.8974821136 2.0119052671 2.1243706857 2.232221744 
2.3334263672 2.426721652 2.5115728246 1.4671972081 1.3575464161 1.24411054 1.1296873865 1.0172219679 0.90937090954 
0.80816628637 0.71487100155 0.63001982895 1.5707963268 1.5707963268 1.5707963268 1.5707963268 1.5707963268 1.5707963268 
1.5707963268 1.5707963268 1.5707963268 1.6743954455 1.7840462375 1.8974821136 2.0119052671 2.1243706857 2.232221744 
2.3334263672 2.426721652 2.5115728246 1.4671972081 1.3575464161 1.24411054 1.1296873865 1.0172219679 0.90937090954 
0.80816628637 0.71487100155 0.63001982895 1.6743954455 1.7840462375 1.8974821136 2.0119052671 2.1243706857 2.232221744 
2.3334263672 2.426721652 2.5115728246 1.4671972081 1.3575464161 1.24411054 1.1296873865 1.0172219679 0.90937090954 
0.80816628637 0.71487100155 0.63001982895 2.6824132222 2.7864913217 2.8992382033 3.0186096618 3.1415926536 3.0186096618 
2.8992382033 2.7864913217 2.6824132222 0.45917943135 0.35510133185 0.2423544503 0.12298299178 0 0.12298299178 
0.2423544503 0.35510133185 0.45917943135 0.22715816343 0.49462574053 0.3129712797 0.77059342779 0.68021497688 0.49462574053 
1.0172219679 1.0172219679 1.0172219679 1.0172219679 1.2156949949 1.271087727 1.3676273807 1.5707963268 2.1243706857 
1.3676273807 1.447813335 1.5707963268 1.7739652728 2.1243706857 2.6469669131 1.4827341049 1.5707963268 1.6937793186 
1.8705049266 2.1243706857 2.4613776767 2.8286213739 1.5707963268 1.6588585487 1.7739652728 1.9258976586 2.1243706857 
2.3709992258 2.6469669131 2.9144344902 0.26576171152 0.33975332011 0.45685295248 0.40226393329 0.51573716537 0.6552068806 
0.45538277901 0.56421707518 0.69407236469 0.84594095064 0.50083690068 0.60464862014 0.72561863695 0.86392567495 1.0172219679 
0.54002084522 0.63877777351 0.75168694275 0.87851444325 1.0172219679 1.1636342747 0.57404952988 0.66790778838 0.77356233629 
0.89058134991 1.0172219679 1.1502619915 1.2852923014 0.60381225391 0.69302191562 0.79216440667 0.90072551443 1.0172219679 
1.139116835 1.2630228569 1.3852070904 0.71487100155 0.80816628637 0.80816628637 0.90937090954 0.90937090954 0.90937090954 
1.0172219679 1.0172219679 1.0172219679 1.0172219679 1.1296873865 1.1296873865 1.1296873865 1.1296873865 1.1296873865 
1.24411054 1.24411054 1.24411054 1.24411054 1.24411054 1.24411054 1.3575464161 1.3575464161 1.3575464161 
1.3575464161 1.3575464161 1.3575464161 1.3575464161 1.4671972081 1.4671972081 1.4671972081 1.4671972081 1.4671972081 
1.4671972081 1.4671972081 1.4671972081 1.6743954455 1.6743954455 1.7840462375 1.6743954455 1.7840462375 1.8974821136 
1.6743954455 1.7840462375 1.8974821136 2.0119052671 1.6743954455 1.7840462375 1.8974821136 2.0119052671 2.1243706857 
1.6743954455 1.7840462375 1.8974821136 2.0119052671 2.1243706857 2.232221744 1.6743954455 1.7840462375 1.8974821136 
2.0119052671 2.1243706857 2.232221744 2.3334263672 1.6743954455 1.7840462375 1.8974821136 2.0119052671 2.1243706857 
2.232221744 2.3334263672 2.426721652 1.7563855631 1.8785697967 1.8563003522 2.0024758186 1.9913306621 1.9779583789 
2.1243706857 2.1243706857 2.1243706857 2.1243706857 2.2408671392 2.2510113037 2.2630782103 2.2776669786 2.295651703 
2.3494282469 2.3680303173 2.3899057108 2.4159740166 2.4475202889 2.486385773 2.448570738 2.4736848652 2.5028148801 
2.5369440334 2.5773755784 2.6258554882 2.6847397011 2.5377803997 2.5675431237 2.6015718084 2.6407557529 2.6862098746 
2.7393287203 2.8018393335 2.8758309421 2.718901062 2.8307207459 2.7598010554 2.95115522 2.8800620952 2.8058000847 
3.0774230472 3.00855263 2.9351694502 2.8576792927 3.0774230472 3.1415926536 3.0719036933 2.9967168029 2.91630358 
2.95115522 3.00855263 3.0719036933 3.1415926536 3.0653475414 2.9825888767 2.8307207459 2.8800620952 2.9351694502 
2.9967168029 3.0653475414 3.1415926536 3.0574329311 2.718901062 2.7598010554 2.8058000847 2.8576792927 2.91630358 
2.9825888767 3.0574329311 3.1415926536 2.718901062 2.7598010554 2.8307207459 2.8058000847 2.8800620952 2.95115522 
2.8576792927 2.9351694502 3.00855263 3.0774230472 2.91630358 2.9967168029 3.0719036933 3.1415926536 3.0774230472 
2.9825888767 3.0653475414 3.1415926536 3.0719036933 3.00855263 2.95115522 3.0574329311 3.1415926536 3.0653475414 