# vtk DataFile Version 5.1
vtk output
ASCII
DATASET POLYDATA
POINTS 1002 float
-11.5652 -0.23057 -2.72619 -23.9186 -13.5351 -5.13099 -10.763 -3.27518 3.91529 
-22.7021 -14.5385 0.511428 -14.8981 -7.4278 -3.14408 -14.2088 -8.79382 0.392773 
-21.4597 -3.0813 -1.14814 -21.9109 -4.68081 3.20995 -20.333 -25.4105 -5.25039 
-1.75253 -2.86838 -0.140007 -28.6005 -17.4724 -2.60101 -10.622 4.13736 2.06557 
-12.6136 -0.893529 -2.85199 -13.8575 -1.67634 -3.02596 -15.2798 -2.64627 -3.18794 
-16.8551 -3.90047 -3.29812 -18.5664 -5.47378 -3.43528 -20.2493 -7.25661 -3.68371 
-21.6395 -9.06419 -4.0174 -22.6562 -10.7468 -4.39677 -23.3904 -12.2332 -4.79056 
-11.3564 -0.683075 -2.93205 -11.2068 -1.20721 -3.17034 -11.1886 -1.8957 -3.37363 
-11.2983 -2.72533 -3.48432 -11.457 -3.55845 -3.59029 -11.7595 -4.41862 -3.76902 
-12.3898 -5.35388 -3.86464 -13.2503 -6.18914 -3.72046 -14.1075 -6.82821 -3.42166 
-12.4278 -0.187103 -2.61214 -13.3925 -0.18777 -2.49816 -14.4552 -0.286348 -2.32859 
-15.5911 -0.498872 -2.12493 -16.7507 -0.776244 -1.96861 -17.8657 -1.13452 -1.82293 
-18.8887 -1.6197 -1.62036 -19.8238 -2.15068 -1.42044 -20.6848 -2.63386 -1.27475 
-10.4101 0.098207 -2.76345 -9.12899 0.350373 -2.77961 -7.75055 0.443267 -2.66079 
-6.323 0.340499 -2.41422 -4.90358 0.0820573 -2.17182 -3.65954 -0.324 -1.93524 
-2.75354 -0.899202 -1.58093 -2.15988 -1.57022 -1.11049 -1.82074 -2.23733 -0.618384 
-11.1228 0.45638 -2.54256 -10.7295 1.16011 -2.30314 -10.4213 1.78703 -1.94811 
-10.2034 2.37866 -1.49789 -10.0779 3.00057 -1.04734 -10.0769 3.53815 -0.585162 
-10.1684 3.91092 0.0222368 -10.285 4.15044 0.773889 -10.432 4.2288 1.49478 
-23.4074 -13.5937 -5.17691 -22.8224 -13.5568 -5.16762 -22.1353 -13.3589 -5.10152 
-21.3507 -12.9974 -4.96807 -20.5647 -12.4963 -4.71032 -19.7929 -11.7718 -4.29355 
-18.8673 -10.7139 -3.83363 -17.667 -9.42665 -3.48659 -16.2794 -8.23409 -3.27482 
-24.0852 -12.6363 -4.85058 -24.1481 -11.6305 -4.49815 -24.0947 -10.5163 -4.08276 
-23.9358 -9.27381 -3.6814 -23.6501 -7.95334 -3.31245 -23.2269 -6.72162 -2.88072 
-22.7425 -5.66569 -2.39359 -22.2842 -4.718 -1.94786 -21.8634 -3.84371 -1.54479 
-23.9977 -14.8923 -5.46087 -23.9382 -16.4057 -5.7677 -23.7419 -18.0151 -6.04667 
-23.4151 -19.623 -6.2863 -22.979 -21.1768 -6.47748 -22.4557 -22.6172 -6.65111 
-21.8302 -23.8378 -6.74891 -21.151 -24.7591 -6.56104 -20.601 -25.3069 -6.00203 
-24.48 -14.2652 -5.22477 -25.0134 -15.0326 -5.22381 -25.536 -15.7763 -5.17651 
-26.1195 -16.43 -5.10846 -26.7284 -16.9719 -4.92859 -27.2371 -17.392 -4.60958 
-27.674 -17.6924 -4.23831 -28.1148 -17.8514 -3.79947 -28.4642 -17.7872 -3.23325 
-11.8969 -3.85257 3.89383 -13.1634 -4.58243 3.84973 -14.5927 -5.48211 3.7254 
-16.1832 -6.51461 3.41985 -17.8067 -7.68493 2.96856 -19.2717 -9.01781 2.43847 
-20.4869 -10.4517 1.82997 -21.4541 -11.8892 1.25461 -22.1827 -13.2676 0.832088 
-10.7244 -3.74658 3.68196 -10.7251 -4.28994 3.42456 -10.8273 -4.89031 3.1286 
-11.0585 -5.52775 2.81301 -11.3942 -6.18355 2.48474 -11.8155 -6.78984 2.08255 
-12.3303 -7.3216 1.62518 -12.9306 -7.84261 1.20119 -13.5714 -8.35441 0.805358 
-11.5349 -3.18085 4.13572 -12.4975 -3.14974 4.32373 -13.7123 -3.20493 4.42414 
-15.1303 -3.34437 4.44563 -16.6214 -3.53268 4.44055 -18.0524 -3.72547 4.3607 
-19.2774 -3.90806 4.12935 -20.2541 -4.11726 3.8061 -21.1026 -4.38487 3.49159 
-9.62713 -3.04243 3.74404 -8.42162 -2.84231 3.4871 -7.15882 -2.6886 3.17652 
-5.87141 -2.60174 2.87032 -4.66409 -2.58891 2.55097 -3.63624 -2.64448 2.16638 
-2.7832 -2.7269 1.70135 -2.13031 -2.79451 1.13828 -1.77971 -2.84491 0.493908 
-10.0922 -2.62415 4.02707 -9.38186 -1.81708 4.04477 -8.75071 -0.840868 3.97491 
-8.33139 0.239746 3.88417 -8.18639 1.34057 3.74055 -8.35238 2.341 3.46983 
-8.81401 3.1128 3.13256 -9.43005 3.64075 2.80449 -10.0505 3.97468 2.45925 
-22.1923 -14.3631 0.420487 -21.6033 -14.0834 0.347761 -20.9349 -13.6446 0.317419 
-20.2112 -13.0036 0.308553 -19.4316 -12.2369 0.313541 -18.5336 -11.4247 0.374693 
-17.4856 -10.5744 0.480768 -16.359 -9.78197 0.542878 -15.2494 -9.18315 0.507112 
-22.8982 -13.8796 0.796655 -23.0717 -13.1101 1.11084 -23.2398 -12.2086 1.4604 
-23.3848 -11.2167 1.81874 -23.4321 -10.1794 2.17072 -23.3473 -9.06879 2.51071 
-23.154 -7.90555 2.78717 -22.8461 -6.77723 2.97222 -22.4136 -5.70577 3.10485 
-22.8034 -15.7276 0.0973363 -22.8347 -17.0039 -0.440004 -22.8066 -18.3219 -1.03512 
-22.6822 -19.7366 -1.58806 -22.4 -21.2439 -2.09757 -21.9857 -22.6503 -2.56903 
-21.5322 -23.8443 -3.02505 -21.0719 -24.807 -3.62489 -20.637 -25.3757 -4.43063 
-23.2815 -15.3551 0.350729 -23.9184 -16.1119 0.131515 -24.6258 -16.7299 -0.12002 
-25.3858 -17.1797 -0.391598 -26.1617 -17.5049 -0.71097 -26.8751 -17.7086 -1.02782 
-27.4813 -17.7631 -1.29338 -28.0054 -17.7359 -1.61744 -28.4083 -17.669 -2.08451 
-14.5592 -7.50947 -2.92656 -14.25 -7.6949 -2.70631 -14.004 -7.98077 -2.48874 
-13.8455 -8.29392 -2.21767 -13.7701 -8.54701 -1.84583 -13.7276 -8.70012 -1.40965 
-13.7175 -8.78099 -0.946454 -13.8018 -8.82667 -0.461028 -13.9846 -8.83286 0.00315611 
-16.5768 -8.88018 -3.11322 -18.1684 -11.245 -3.45917 -19.1536 -13.9118 -4.11017 
-19.3781 -16.1119 -4.75367 -19.3834 -17.9842 -5.17459 -19.6326 -19.9988 -5.39894 
-19.893 -21.9584 -5.55025 -19.9399 -23.5359 -5.65358 -20.0098 -24.695 -5.58089 
-13.0871 -6.799 -3.2332 -11.3889 -6.60161 -3.2699 -9.78374 -6.22065 -3.06672 
-8.13463 -5.56757 -2.6711 -6.53266 -5.09358 -2.25625 -5.10295 -4.75157 -1.87656 
-3.83902 -4.28798 -1.49985 -2.81833 -3.83224 -1.09292 -2.13087 -3.40883 -0.631795 
-15.5362 -9.50677 0.00190049 -16.9868 -10.7405 -0.503632 -18.3412 -12.7968 -1.11391 
-19.2162 -15.3664 -1.78717 -19.5416 -17.7444 -2.46074 -19.7344 -19.8023 -3.09517 
-19.9817 -21.7922 -3.67409 -20.0843 -23.5483 -4.20713 -20.101 -24.761 -4.73398 
-12.7436 -8.29138 0.492748 -11.1538 -7.83089 0.578304 -9.51747 -7.4049 0.656789 
-7.90703 -7.02859 0.670796 -6.36975 -6.60807 0.614926 -4.98307 -6.074 0.558041 
-3.80094 -5.46318 0.471593 -2.8296 -4.74234 0.287834 -2.12776 -3.85399 0.0571741 
-21.6562 -2.94718 -0.783879 -21.8288 -2.84786 -0.340816 -21.9775 -2.74165 0.186296 
-22.1152 -2.66217 0.803354 -22.2208 -2.73032 1.42826 -22.2402 -2.96694 1.94508 
-22.1888 -3.30407 2.37308 -22.1281 -3.72767 2.75816 -22.049 -4.21317 3.04736 
-22.4734 -4.02943 -1.26248 -23.5532 -5.1184 -1.39173 -24.6623 -6.27629 -1.56988 
-25.7381 -7.48106 -1.81007 -26.6736 -8.94785 -2.08905 -27.3948 -10.8655 -2.38804 
-27.9512 -13.0018 -2.65206 -28.3873 -14.9228 -2.78245 -28.6249 -16.4051 -2.74527 
-20.5667 -2.07202 -0.824101 -19.6054 -0.976472 -0.493379 -18.5989 0.16323 -0.159358 
-17.512 1.18998 0.203916 -16.3361 2.03838 0.584968 -15.1629 2.82241 0.944232 
-14.0454 3.4992 1.27842 -12.9203 3.90485 1.58938 -11.7551 4.07645 1.85772 
-23.0933 -5.63951 2.88422 -24.2919 -6.68877 2.51063 -25.332 -7.82897 2.03386 
-26.2643 -9.07563 1.50409 -27.115 -10.4899 0.956973 -27.7311 -12.0991 0.278113 
-28.1182 -13.7158 -0.559214 -28.4162 -15.1487 -1.37623 -28.6072 -16.3977 -2.04646 
-20.9226 -3.44996 3.49825 -19.9864 -2.15328 3.81109 -18.9965 -0.891422 3.99218 
-17.7564 0.322998 3.95539 -16.3138 1.56814 3.82666 -14.9249 2.70177 3.65364 
-13.7067 3.42929 3.32292 -12.5988 3.76667 2.87513 -11.5594 3.96118 2.45094 
-21.0897 -25.7758 -5.20428 -22.248 -25.6431 -5.00031 -23.5173 -25.0353 -4.69552 
-24.6286 -24.2625 -4.37579 -25.5606 -23.3697 -4.08039 -26.3877 -22.1563 -3.79354 
-27.1436 -20.8465 -3.47741 -27.8113 -19.7074 -3.13813 -28.3199 -18.6175 -2.83788 
-1.58026 -1.75716 0.0711869 -1.69244 -0.567814 0.301967 -2.16831 0.446224 0.50108 
-3.01931 1.31461 0.646699 -4.16551 2.2128 0.8052 -5.47486 3.09942 1.04119 
-6.80614 3.80137 1.34176 -8.0997 4.17839 1.64859 -9.37659 4.23426 1.89839 
-12.5203 -1.3928 -3.07162 -12.5341 -2.0179 -3.31592 -13.8915 -2.27412 -3.23486 
-12.6968 -2.80916 -3.51123 -14.0567 -3.02642 -3.43799 -15.4554 -3.40304 -3.35092 
-12.9133 -3.61995 -3.64346 -14.3786 -3.87401 -3.598 -15.8001 -4.31116 -3.48554 
-17.2392 -4.87547 -3.43409 -13.1741 -4.41617 -3.78614 -14.7937 -4.73899 -3.72509 
-16.3615 -5.33665 -3.60895 -17.8121 -6.03178 -3.55835 -19.146 -6.69373 -3.62263 
-13.7239 -5.37387 -3.8676 -15.3738 -5.78729 -3.7965 -17.0589 -6.55898 -3.72508 
-18.5189 -7.39312 -3.72158 -19.7669 -8.10375 -3.8292 -20.816 -8.66204 -3.9596 
-14.5994 -6.41964 -3.73858 -16.1906 -7.05635 -3.72028 -17.7967 -8.01317 -3.77604 
-19.1521 -8.94266 -3.91983 -20.2589 -9.64186 -4.10432 -21.2171 -10.1623 -4.27096 
-22.0126 -10.5311 -4.36629 -15.5077 -7.35407 -3.47649 -17.0235 -8.29529 -3.55798 
-18.4387 -9.45252 -3.77109 -19.5786 -10.4667 -4.10455 -20.5075 -11.1587 -4.41815 
-21.3746 -11.6355 -4.62911 -22.1649 -11.983 -4.74315 -22.8282 -12.175 -4.78913 
-10.0992 -0.40418 -2.97713 -8.72436 -0.249626 -2.94489 -9.84741 -1.00041 -3.18659 
-7.29023 -0.288278 -2.75137 -8.39362 -0.955218 -3.08751 -9.74913 -1.77468 -3.31915 
-5.85624 -0.503974 -2.47343 -6.96622 -1.12517 -2.85951 -8.26694 -1.82487 -3.17491 
-9.84045 -2.6944 -3.37373 -4.52324 -0.851092 -2.20858 -5.64568 -1.4597 -2.57215 
-6.91784 -2.09185 -2.95409 -8.43457 -2.82025 -3.21661 -10.1104 -3.66102 -3.4826 
-3.46642 -1.36989 -1.90489 -4.51314 -1.91533 -2.24774 -5.77501 -2.52143 -2.6513 
-7.2285 -3.11768 -2.98074 -8.91706 -3.87276 -3.28798 -10.6419 -4.68082 -3.65759 
-2.74112 -2.05222 -1.5164 -3.65627 -2.52072 -1.87761 -4.86619 -3.07578 -2.27794 
-6.26615 -3.57933 -2.65212 -7.90745 -4.16212 -2.98398 -9.68583 -4.97049 -3.3856 
-11.4301 -5.648 -3.70615 -2.29596 -2.76401 -1.08597 -3.09102 -3.20375 -1.4915 
-4.21582 -3.70746 -1.88381 -5.55971 -4.17432 -2.27335 -7.10511 -4.58605 -2.63431 
-8.83924 -5.24781 -3.03008 -10.5669 -5.94788 -3.40177 -12.28 -6.34554 -3.53064 
-2.65654 -4.31158 -0.485284 -3.54497 -5.1382 -0.325315 -3.55223 -4.721 -1.00058 
-4.68124 -5.89353 -0.185515 -4.62398 -5.553 -0.881442 -4.76042 -5.18417 -1.42297 
-5.96275 -6.57175 -0.0504007 -5.85827 -6.28691 -0.735352 -5.9327 -5.9209 -1.30256 
-6.14987 -5.54867 -1.80882 -7.39918 -7.12037 0.0959216 -7.18894 -6.94459 -0.577506 
-7.21603 -6.57228 -1.17662 -7.38448 -6.23906 -1.73815 -7.69417 -5.93307 -2.26729 
[...]
POINT_DATA 1002
FIELD FieldData 4
_paraPhi 1 1002 double
6.2831853072 3.1415926536 6.2831853072 3.1415926536 4.7123889804 4.7123889804 1.5707963268 1.5707963268 3.6951670125 
5.7296109483 2.5880182947 0.5535743589 6.2831853072 6.2831853072 6.2831853072 6.2831853072 3.1415926536 3.1415926536 
3.1415926536 3.1415926536 3.1415926536 6.1053039672 5.898798347 5.6768734901 5.4599499503 5.2659633393 5.1032165617 
4.9713148346 4.8656852733 4.7809517865 0.17788134 0.38438696014 0.60631181711 0.82323535693 1.0172219679 1.1799687454 
1.3118704726 1.4175000338 1.5022335207 6.1892828907 6.1070320098 6.035312792 5.9728339911 5.9183214791 5.8706119594 
5.8286879411 5.7916808611 5.7588591896 0.093902416448 0.17615329733 0.2478725152 0.31035131605 0.36486382811 0.41257334776 
0.45449736604 0.4915044461 0.52432611754 3.3194739936 3.5259796137 3.7479044707 3.9648280105 4.1588146215 4.321561399 
4.4534631262 4.5590926874 4.6438261743 2.9637113136 2.7572056934 2.5352808365 2.3183572967 2.1243706857 1.9616239082 
1.829722181 1.7240926197 1.6393591329 3.23549507 3.3177459509 3.3894651688 3.4519439696 3.5064564817 3.5541660013 
3.5960900196 3.6330970997 3.6659187711 3.0476902371 2.9654393563 2.8937201384 2.8312413375 2.7767288255 2.7290193058 
2.6870952876 2.6500882075 2.617266536 6.2831853072 6.2831853072 6.2831853072 6.2831853072 3.1415926536 3.1415926536 
3.1415926536 3.1415926536 3.1415926536 6.1053039672 5.898798347 5.6768734901 5.4599499503 5.2659633393 5.1032165617 
4.9713148346 4.8656852733 4.7809517865 0.17788134 0.38438696014 0.60631181711 0.82323535693 1.0172219679 1.1799687454 
1.3118704726 1.4175000338 1.5022335207 6.1892828907 6.1070320098 6.035312792 5.9728339911 5.9183214791 5.8706119594 
5.8286879411 5.7916808611 5.7588591896 0.093902416448 0.17615329733 0.2478725152 0.31035131605 0.36486382811 0.41257334776 
0.45449736604 0.4915044461 0.52432611754 3.3194739936 3.5259796137 3.7479044707 3.9648280105 4.1588146215 4.321561399 
4.4534631262 4.5590926874 4.6438261743 2.9637113136 2.7572056934 2.5352808365 2.3183572967 2.1243706857 1.9616239082 
1.829722181 1.7240926197 1.6393591329 3.23549507 3.3177459509 3.3894651688 3.4519439696 3.5064564817 3.5541660013 
3.5960900196 3.6330970997 3.6659187711 3.0476902371 2.9654393563 2.8937201384 2.8312413375 2.7767288255 2.7290193058 
2.6870952876 2.6500882075 2.617266536 4.7123889804 4.7123889804 4.7123889804 4.7123889804 4.7123889804 4.7123889804 
4.7123889804 4.7123889804 4.7123889804 4.6087898617 4.4991390697 4.3857031936 4.2712800401 4.1588146215 4.0509635631 
3.94975894 3.8564636551 3.7716124825 4.8159880991 4.9256388911 5.0390747672 5.1534979207 5.2659633393 5.3738143976 
5.4750190208 5.5683143056 5.6531654782 4.6087898617 4.4991390697 4.3857031936 4.2712800401 4.1588146215 4.0509635631 
3.94975894 3.8564636551 3.7716124825 4.8159880991 4.9256388911 5.0390747672 5.1534979207 5.2659633393 5.3738143976 
5.4750190208 5.5683143056 5.6531654782 1.5707963268 1.5707963268 1.5707963268 1.5707963268 1.5707963268 1.5707963268 
1.5707963268 1.5707963268 1.5707963268 1.6743954455 1.7840462375 1.8974821136 2.0119052671 2.1243706857 2.232221744 
2.3334263672 2.426721652 2.5115728246 1.4671972081 1.3575464161 1.24411054 1.1296873865 1.0172219679 0.90937090954 
0.80816628637 0.71487100155 0.63001982895 1.6743954455 1.7840462375 1.8974821136 2.0119052671 2.1243706857 2.232221744 
2.3334263672 2.426721652 2.5115728246 1.4671972081 1.3575464161 1.24411054 1.1296873865 1.0172219679 0.90937090954 
0.80816628637 0.71487100155 0.63001982895 3.6007720849 3.4966939854 3.3839471039 3.2645756454 3.1415926536 3.0186096618 
2.8992382033 2.7864913217 2.6824132222 5.8240058758 5.9280839753 6.0408308569 6.1602023154 6.2831853072 0.12298299178 
0.2423544503 0.35510133185 0.45917943135 6.0560271438 5.7885595667 5.9702140275 5.5125918794 5.6029703303 5.7885595667 
5.2659633393 5.2659633393 5.2659633393 5.2659633393 5.0674903122 5.0120975802 4.9155579264 4.7123889804 4.1588146215 
4.9155579264 4.8353719722 4.7123889804 4.5092200343 4.1588146215 3.6362183941 4.8004512023 4.7123889804 4.5894059886 
4.4126803806 4.1588146215 3.8218076305 3.4545639333 4.7123889804 4.6243267584 4.5092200343 4.3572876485 4.1588146215 
3.9121860814 3.6362183941 3.368750817 6.0174235957 5.9434319871 5.8263323547 5.8809213739 5.7674481418 5.6279784266 
5.8278025282 5.718968232 5.5891129425 5.4372443565 5.7823484065 5.678536687 5.5575666702 5.4192596322 5.2659633393 
5.743164462 5.6444075337 5.5314983644 5.4046708639 5.2659633393 5.1195510325 5.7091357773 5.6152775188 5.5096229709 
5.3926039573 5.2659633393 5.1329233157 4.9978930058 5.6793730533 5.5901633916 5.4910209005 5.3824597928 5.2659633393 
5.1440684722 5.0201624502 4.8979782167 5.5683143056 5.4750190208 5.4750190208 5.3738143976 5.3738143976 5.3738143976 
5.2659633393 5.2659633393 5.2659633393 5.2659633393 5.1534979207 5.1534979207 5.1534979207 5.1534979207 5.1534979207 
5.0390747672 5.0390747672 5.0390747672 5.0390747672 5.0390747672 5.0390747672 4.9256388911 4.9256388911 4.9256388911 
4.9256388911 4.9256388911 4.9256388911 4.9256388911 4.8159880991 4.8159880991 4.8159880991 4.8159880991 4.8159880991 
4.8159880991 4.8159880991 4.8159880991 4.6087898617 4.6087898617 4.4991390697 4.6087898617 4.4991390697 4.3857031936 
4.6087898617 4.4991390697 4.3857031936 4.2712800401 4.6087898617 4.4991390697 4.3857031936 4.2712800401 4.1588146215 
4.6087898617 4.4991390697 4.3857031936 4.2712800401 4.1588146215 4.0509635631 4.6087898617 4.4991390697 4.3857031936 
4.2712800401 4.1588146215 4.0509635631 3.94975894 4.6087898617 4.4991390697 4.3857031936 4.2712800401 4.1588146215 
4.0509635631 3.94975894 3.8564636551 4.526799744 4.4046155105 4.426884955 4.2807094886 4.2918546451 4.3052269283 
4.1588146215 4.1588146215 4.1588146215 4.1588146215 4.042318168 4.0321740035 4.0201070968 4.0055183285 3.9875336042 
3.9337570603 3.9151549899 3.8932795963 3.8672112905 3.8356650183 3.7967995342 3.8346145692 3.809500442 3.7803704271 
3.7462412737 3.7058097288 3.657329819 3.5984456061 3.7454049075 3.7156421835 3.6816134988 3.6424295543 3.5969754326 
3.5438565869 3.4813459737 3.4073543651 3.5642842451 3.4524645613 3.5233842518 3.3320300872 3.403123212 3.4773852225 
3.20576226 3.2746326772 3.348015857 3.4255060145 3.0774230472 3.1415926536 3.2112816139 3.2864685043 3.3668817272 
2.95115522 3.00855263 3.0719036933 3.1415926536 3.2178377658 3.3005964304 2.8307207459 2.8800620952 2.9351694502 
2.9967168029 3.0653475414 3.1415926536 3.225752376 2.718901062 2.7598010554 2.8058000847 2.8576792927 2.91630358 
2.9825888767 3.0574329311 3.1415926536 3.5642842451 3.5233842518 3.4524645613 3.4773852225 3.403123212 3.3320300872 
3.4255060145 3.348015857 3.2746326772 3.20576226 3.3668817272 3.2864685043 3.2112816139 3.1415926536 3.0774230472 
3.3005964304 3.2178377658 3.1415926536 3.0719036933 3.00855263 2.95115522 3.225752376 3.1415926536 3.0653475414 
2.9967168029 2.9351694502 2.8800620952 2.8307207459 3.1415926536 3.0574329311 2.9825888767 2.91630358 2.8576792927 
2.8058000847 2.7598010554 2.718901062 4.526799744 4.426884955 4.4046155105 4.3052269283 4.2918546451 4.2807094886 
4.1588146215 4.1588146215 4.1588146215 4.1588146215 3.9875336042 4.0055183285 4.0201070968 4.0321740035 4.042318168 
3.7967995342 3.8356650183 3.8672112905 3.8932795963 3.9151549899 3.9337570603 3.5984456061 3.657329819 3.7058097288 
3.7462412737 3.7803704271 3.809500442 3.8346145692 3.4073543651 3.4813459737 3.5438565869 3.5969754326 3.6424295543 
3.6816134988 3.7156421835 3.7454049075 4.7123889804 4.8004512023 4.6243267584 4.9155579264 4.7123889804 4.5092200343 
5.0674903122 4.8353719722 4.5894059886 4.3572876485 5.2659633393 5.0120975802 4.7123889804 4.4126803806 4.1588146215 
5.5125918794 5.2659633393 4.9155579264 4.5092200343 4.1588146215 3.9121860814 5.7885595667 5.6029703303 5.2659633393 
4.7123889804 4.1588146215 3.8218076305 3.6362183941 6.0560271438 5.9702140275 5.7885595667 5.2659633393 4.1588146215 
3.6362183941 3.4545639333 3.368750817 0.22715816343 0.49462574053 0.3129712797 0.77059342779 0.68021497688 0.49462574053 
1.0172219679 1.0172219679 1.0172219679 1.0172219679 1.2156949949 1.271087727 1.3676273807 1.5707963268 2.1243706857 
1.3676273807 1.447813335 1.5707963268 1.7739652728 2.1243706857 2.6469669131 1.4827341049 1.5707963268 1.6937793186 
1.8705049266 2.1243706857 2.4613776767 2.8286213739 1.5707963268 1.6588585487 1.7739652728 1.9258976586 2.1243706857 
2.3709992258 2.6469669131 2.9144344902 1.7563855631 1.8785697967 1.8563003522 2.0024758186 1.9913306621 1.9779583789 
2.1243706857 2.1243706857 2.1243706857 2.1243706857 2.2408671392 2.2510113037 2.2630782103 2.2776669786 2.295651703 
2.3494282469 2.3680303173 2.3899057108 2.4159740166 2.4475202889 2.486385773 2.448570738 2.4736848652 2.5028148801 
2.5369440334 2.5773755784 2.6258554882 2.6847397011 2.5377803997 2.5675431237 2.6015718084 2.6407557529 2.6862098746 
2.7393287203 2.8018393335 2.8758309421 1.6743954455 1.6743954455 1.7840462375 1.6743954455 1.7840462375 1.8974821136 
1.6743954455 1.7840462375 1.8974821136 2.0119052671 1.6743954455 1.7840462375 1.8974821136 2.0119052671 2.1243706857 
1.6743954455 1.7840462375 1.8974821136 2.0119052671 2.1243706857 2.232221744 1.6743954455 1.7840462375 1.8974821136 
2.0119052671 2.1243706857 2.232221744 2.3334263672 1.6743954455 1.7840462375 1.8974821136 2.0119052671 2.1243706857 
2.232221744 2.3334263672 2.426721652 1.4671972081 1.3575464161 1.4671972081 1.24411054 1.3575464161 1.4671972081 
1.1296873865 1.24411054 1.3575464161 1.4671972081 1.0172219679 1.1296873865 1.24411054 1.3575464161 1.4671972081 
0.90937090954 1.0172219679 1.1296873865 1.24411054 1.3575464161 1.4671972081 0.80816628637 0.90937090954 1.0172219679 
1.1296873865 1.24411054 1.3575464161 1.4671972081 0.71487100155 0.80816628637 0.90937090954 1.0172219679 1.1296873865 
1.24411054 1.3575464161 1.4671972081 0.60381225391 0.57404952988 0.69302191562 0.54002084522 0.66790778838 0.79216440667 
0.50083690068 0.63877777351 0.77356233629 0.90072551443 0.45538277901 0.60464862014 0.75168694275 0.89058134991 1.0172219679 
0.40226393329 0.56421707518 0.72561863695 0.87851444325 1.0172219679 1.139116835 0.33975332011 0.51573716537 0.69407236469 
0.86392567495 1.0172219679 1.1502619915 1.2630228569 0.26576171152 0.45685295248 0.6552068806 0.84594095064 1.0172219679 
1.1636342747 1.2852923014 1.3852070904 0.22715816343 0.3129712797 0.49462574053 0.49462574053 0.68021497688 0.77059342779 
1.0172219679 1.0172219679 1.0172219679 1.0172219679 2.1243706857 1.5707963268 1.3676273807 1.271087727 1.2156949949 
2.6469669131 2.1243706857 1.7739652728 1.5707963268 1.447813335 1.3676273807 2.8286213739 2.4613776767 2.1243706857 
1.8705049266 1.6937793186 1.5707963268 1.4827341049 2.9144344902 2.6469669131 2.3709992258 2.1243706857 1.9258976586 
1.7739652728 1.6588585487 1.5707963268 1.7563855631 1.8563003522 1.8785697967 1.9779583789 1.9913306621 2.0024758186 
2.1243706857 2.1243706857 2.1243706857 2.1243706857 2.295651703 2.2776669786 2.2630782103 2.2510113037 2.2408671392 
2.486385773 2.4475202889 2.4159740166 2.3899057108 2.3680303173 2.3494282469 2.6847397011 2.6258554882 2.5773755784 
2.5369440334 2.5028148801 2.4736848652 2.448570738 2.8758309421 2.8018393335 2.7393287203 2.6862098746 2.6407557529 
2.6015718084 2.5675431237 2.5377803997 5.8604937156 5.901393709 5.9723133995 5.9473927383 6.0216547488 6.0927478736 
5.9992719463 6.0767621038 6.1501452836 6.2190157008 6.0578962336 6.1383094565 6.2134963469 0 0.064169606361 
6.1241815303 6.206940195 6.2831853072 0.069688960264 0.13304002361 0.19043743361 6.1990255847 0 0.07624511221 
0.14487585072 0.20642320337 0.26153055843 0.3108719077 0 0.084159722458 0.15900377685 0.22528907359 0.28391336087 
0.3357925689 0.38179159818 0.42269159155 5.8604937156 5.9723133995 5.901393709 6.0927478736 6.0216547488 5.9473927383 
6.2190157008 6.1501452836 6.0767621038 5.9992719463 0.064169606361 0 6.2134963469 6.1383094565 6.0578962336 
0.19043743361 0.13304002361 0.069688960264 6.2831853072 6.206940195 6.1241815303 0.3108719077 0.26153055843 0.20642320337 
0.14487585072 0.07624511221 6.2831853072 6.1990255847 0.42269159155 0.38179159818 0.3357925689 0.28391336087 0.22528907359 
0.15900377685 0.084159722458 0 5.6793730533 5.7091357773 5.5901633916 5.743164462 5.6152775188 5.4910209005 
5.7823484065 5.6444075337 5.5096229709 5.3824597928 5.8278025282 5.678536687 5.5314983644 5.3926039573 5.2659633393 
5.8809213739 5.718968232 5.5575666702 5.4046708639 5.2659633393 5.1440684722 5.9434319871 5.7674481418 5.5891129425 
5.4192596322 5.2659633393 5.1329233157 5.0201624502 6.0174235957 5.8263323547 5.6279784266 5.4372443565 5.2659633393 
5.1195510325 4.9978930058 4.8979782167 1.3852070904 1.2852923014 1.2630228569 1.1636342747 1.1502619915 1.139116835 
1.0172219679 1.0172219679 1.0172219679 1.0172219679 0.84594095064 0.86392567495 0.87851444325 0.89058134991 0.90072551443 
0.6552068806 0.69407236469 0.72561863695 0.75168694275 0.77356233629 0.79216440667 0.45685295248 0.51573716537 0.56421707518 
0.60464862014 0.63877777351 0.66790778838 0.69302191562 0.26576171152 0.33975332011 0.40226393329 0.45538277901 0.50083690068 
0.54002084522 0.57404952988 0.60381225391 
_paraPhiHalf 1 1002 double
0 3.1415926536 0 3.1415926536 1.5707963268 1.5707963268 1.5707963268 1.5707963268 2.5880182947 
0.5535743589 2.5880182947 0.5535743589 0 0 0 0 3.1415926536 3.1415926536 
3.1415926536 3.1415926536 3.1415926536 0.17788134 0.38438696014 0.60631181711 0.82323535693 1.0172219679 1.1799687454 
1.3118704726 1.4175000338 1.5022335207 0.17788134 0.38438696014 0.60631181711 0.82323535693 1.0172219679 1.1799687454 
1.3118704726 1.4175000338 1.5022335207 0.093902416448 0.17615329733 0.2478725152 0.31035131605 0.36486382811 0.41257334776 
0.45449736604 0.4915044461 0.52432611754 0.093902416448 0.17615329733 0.2478725152 0.31035131605 0.36486382811 0.41257334776 
0.45449736604 0.4915044461 0.52432611754 2.9637113136 2.7572056934 2.5352808365 2.3183572967 2.1243706857 1.9616239082 
1.829722181 1.7240926197 1.6393591329 2.9637113136 2.7572056934 2.5352808365 2.3183572967 2.1243706857 1.9616239082 
1.829722181 1.7240926197 1.6393591329 3.0476902371 2.9654393563 2.8937201384 2.8312413375 2.7767288255 2.7290193058 
2.6870952876 2.6500882075 2.617266536 3.0476902371 2.9654393563 2.8937201384 2.8312413375 2.7767288255 2.7290193058 
2.6870952876 2.6500882075 2.617266536 0 0 0 0 3.1415926536 3.1415926536 
3.1415926536 3.1415926536 3.1415926536 0.17788134 0.38438696014 0.60631181711 0.82323535693 1.0172219679 1.1799687454 
1.3118704726 1.4175000338 1.5022335207 0.17788134 0.38438696014 0.60631181711 0.82323535693 1.0172219679 1.1799687454 
1.3118704726 1.4175000338 1.5022335207 0.093902416448 0.17615329733 0.2478725152 0.31035131605 0.36486382811 0.41257334776 
0.45449736604 0.4915044461 0.52432611754 0.093902416448 0.17615329733 0.2478725152 0.31035131605 0.36486382811 0.41257334776 
0.45449736604 0.4915044461 0.52432611754 2.9637113136 2.7572056934 2.5352808365 2.3183572967 2.1243706857 1.9616239082 
1.829722181 1.7240926197 1.6393591329 2.9637113136 2.7572056934 2.5352808365 2.3183572967 2.1243706857 1.9616239082 
1.829722181 1.7240926197 1.6393591329 3.0476902371 2.9654393563 2.8937201384 2.8312413375 2.7767288255 2.7290193058 
2.6870952876 2.6500882075 2.617266536 3.0476902371 2.9654393563 2.8937201384 2.8312413375 2.7767288255 2.7290193058 
2.6870952876 2.6500882075 2.617266536 1.5707963268 1.5707963268 1.5707963268 1.5707963268 1.5707963268 1.5707963268 
1.5707963268 1.5707963268 1.5707963268 1.6743954455 1.7840462375 1.8974821136 2.0119052671 2.1243706857 2.232221744 
2.3334263672 2.426721652 2.5115728246 1.4671972081 1.3575464161 1.24411054 1.1296873865 1.0172219679 0.90937090954 
0.80816628637 0.71487100155 0.63001982895 1.6743954455 1.7840462375 1.8974821136 2.0119052671 2.1243706857 2.232221744 
2.3334263672 2.426721652 2.5115728246 1.4671972081 1.3575464161 1.24411054 1.1296873865 1.0172219679 0.90937090954 
0.80816628637 0.71487100155 0.63001982895 1.5707963268 1.5707963268 1.5707963268 1.5707963268 1.5707963268 1.5707963268 
1.5707963268 1.5707963268 1.5707963268 1.6743954455 1.7840462375 1.8974821136 2.0119052671 2.1243706857 2.232221744 
2.3334263672 2.426721652 2.5115728246 1.4671972081 1.3575464161 1.24411054 1.1296873865 1.0172219679 0.90937090954 
0.80816628637 0.71487100155 0.63001982895 1.6743954455 1.7840462375 1.8974821136 2.0119052671 2.1243706857 2.232221744 
2.3334263672 2.426721652 2.5115728246 1.4671972081 1.3575464161 1.24411054 1.1296873865 1.0172219679 0.90937090954 
0.80816628637 0.71487100155 0.63001982895 2.6824132222 2.7864913217 2.8992382033 3.0186096618 3.1415926536 3.0186096618 
2.8992382033 2.7864913217 2.6824132222 0.45917943135 0.35510133185 0.2423544503 0.12298299178 0 0.12298299178 
0.2423544503 0.35510133185 0.45917943135 0.22715816343 0.49462574053 0.3129712797 0.77059342779 0.68021497688 0.49462574053 
1.0172219679 1.0172219679 1.0172219679 1.0172219679 1.2156949949 1.271087727 1.3676273807 1.5707963268 2.1243706857 
1.3676273807 1.447813335 1.5707963268 1.7739652728 2.1243706857 2.6469669131 1.4827341049 1.5707963268 1.6937793186 
1.8705049266 2.1243706857 2.4613776767 2.8286213739 1.5707963268 1.6588585487 1.7739652728 1.9258976586 2.1243706857 
2.3709992258 2.6469669131 2.9144344902 0.26576171152 0.33975332011 0.45685295248 0.40226393329 0.51573716537 0.6552068806 
0.45538277901 0.56421707518 0.69407236469 0.84594095064 0.50083690068 0.60464862014 0.72561863695 0.86392567495 1.0172219679 
0.54002084522 0.63877777351 0.75168694275 0.87851444325 1.0172219679 1.1636342747 0.57404952988 0.66790778838 0.77356233629 
0.89058134991 1.0172219679 1.1502619915 1.2852923014 0.60381225391 0.69302191562 0.79216440667 0.90072551443 1.0172219679 
1.139116835 1.2630228569 1.3852070904 0.71487100155 0.80816628637 0.80816628637 0.90937090954 0.90937090954 0.90937090954 
1.0172219679 1.0172219679 1.0172219679 1.0172219679 1.1296873865 1.1296873865 1.1296873865 1.1296873865 1.1296873865 
1.24411054 1.24411054 1.24411054 1.24411054 1.24411054 1.24411054 1.3575464161 1.3575464161 1.3575464161 
1.3575464161 1.3575464161 1.3575464161 1.3575464161 1.4671972081 1.4671972081 1.4671972081 1.4671972081 1.4671972081 
1.4671972081 1.4671972081 1.4671972081 1.6743954455 1.6743954455 1.7840462375 1.6743954455 1.7840462375 1.8974821136 
1.6743954455 1.7840462375 1.8974821136 2.0119052671 1.6743954455 1.7840462375 1.8974821136 2.0119052671 2.1243706857 
1.6743954455 1.7840462375 1.8974821136 2.0119052671 2.1243706857 2.232221744 1.6743954455 1.7840462375 1.8974821136 
2.0119052671 2.1243706857 2.232221744 2.3334263672 1.6743954455 1.7840462375 1.8974821136 2.0119052671 2.1243706857 
2.232221744 2.3334263672 2.426721652 1.7563855631 1.8785697967 1.8563003522 2.0024758186 1.9913306621 1.9779583789 
2.1243706857 2.1243706857 2.1243706857 2.1243706857 2.2408671392 2.2510113037 2.2630782103 2.2776669786 2.295651703 
2.3494282469 2.3680303173 2.3899057108 2.4159740166 2.4475202889 2.486385773 2.448570738 2.4736848652 2.5028148801 
2.5369440334 2.5773755784 2.6258554882 2.6847397011 2.5377803997 2.5675431237 2.6015718084 2.6407557529 2.6862098746 
2.7393287203 2.8018393335 2.8758309421 2.718901062 2.8307207459 2.7598010554 2.95115522 2.8800620952 2.8058000847 
3.0774230472 3.00855263 2.9351694502 2.8576792927 3.0774230472 3.1415926536 3.0719036933 2.9967168029 2.91630358 
2.95115522 3.00855263 3.0719036933 3.1415926536 3.0653475414 2.9825888767 2.8307207459 2.8800620952 2.9351694502 
2.9967168029 3.0653475414 3.1415926536 3.0574329311 2.718901062 2.7598010554 2.8058000847 2.8576792927 2.91630358 
2.9825888767 3.0574329311 3.1415926536 2.718901062 2.7598010554 2.8307207459 2.8058000847 2.8800620952 2.95115522 
2.8576792927 2.9351694502 3.00855263 3.0774230472 2.91630358 2.9967168029 3.0719036933 3.1415926536 3.0774230472 
2.9825888767 3.0653475414 3.1415926536 3.0719036933 3.00855263 2.95115522 3.0574329311 3.1415926536 3.0653475414 