# vtk DataFile Version 5.1
vtk output
ASCII
DATASET POLYDATA
POINTS 1002 float
-12.0222 -0.863883 -2.60823 -23.0702 -12.8712 -4.82706 -11.3087 -3.89196 3.62656 
-22.0942 -13.941 0.351963 -15.1831 -7.87128 -3.003 -14.3827 -8.67427 0.241021 
-21.1442 -3.62494 -1.13356 -21.3636 -4.76977 2.8631 -19.7465 -23.4481 -4.82236 
-3.25527 -3.28545 -0.421715 -27.416 -16.259 -2.37346 -11.4173 2.90605 1.94206 
-12.9604 -1.48458 -2.69448 -14.1242 -2.24194 -2.79882 -15.5156 -3.15954 -2.94787 
-17.0052 -4.33762 -3.0891 -18.4926 -5.82672 -3.22922 -19.9214 -7.45903 -3.49606 
-21.1156 -9.02316 -3.88415 -21.963 -10.4491 -4.25718 -22.5746 -11.7302 -4.56776 
-11.7926 -1.28324 -2.78858 -11.5917 -1.83002 -2.91959 -11.4743 -2.47517 -3.04459 
-11.5157 -3.16587 -3.20312 -11.7223 -3.88506 -3.34702 -12.0739 -4.65448 -3.3891 
-12.6448 -5.49174 -3.32092 -13.4532 -6.35058 -3.21485 -14.348 -7.149 -3.1134 
-12.8261 -0.876146 -2.44211 -13.7233 -0.956122 -2.24621 -14.7082 -1.10018 -2.04602 
-15.7496 -1.28365 -1.88771 -16.8338 -1.5118 -1.7887 -17.9069 -1.83809 -1.68107 
-18.8572 -2.26593 -1.52195 -19.674 -2.73249 -1.36608 -20.4328 -3.1912 -1.24563 
-10.9594 -0.554287 -2.6296 -9.75324 -0.320606 -2.61598 -8.43625 -0.238275 -2.55405 
-7.11919 -0.365315 -2.41789 -5.91218 -0.641638 -2.22354 -4.85483 -0.976871 -2.02992 
-3.98974 -1.41021 -1.78473 -3.42628 -1.98767 -1.39776 -3.21155 -2.64433 -0.911943 
-11.652 -0.299487 -2.38351 -11.3032 0.282125 -2.09799 -11.0081 0.887525 -1.77815 
-10.8165 1.47718 -1.40352 -10.7426 2.01939 -0.974689 -10.7856 2.48375 -0.51724 
-10.9226 2.81851 0.0393078 -11.0875 3.00188 0.727552 -11.2458 3.02814 1.40622 
-22.5573 -12.9101 -4.91525 -21.9873 -12.897 -4.93227 -21.3911 -12.8012 -4.82072 
-20.7572 -12.5836 -4.62939 -20.0854 -12.2411 -4.41273 -19.455 -11.7258 -4.08235 
-18.8064 -10.8972 -3.61973 -17.8705 -9.77304 -3.22643 -16.5743 -8.65999 -3.04587 
-23.241 -12.097 -4.55927 -23.3492 -11.2059 -4.25874 -23.3818 -10.185 -3.93474 
-23.3147 -9.08022 -3.57374 -23.123 -7.96579 -3.18098 -22.7958 -6.91128 -2.74957 
-22.3675 -5.95477 -2.28387 -21.9201 -5.08932 -1.85274 -21.5118 -4.3084 -1.48432 
-23.1763 -14.0818 -5.09465 -23.15 -15.492 -5.29632 -22.9669 -17.0113 -5.47596 
-22.6601 -18.4872 -5.68546 -22.2741 -19.8863 -5.90339 -21.8201 -21.2047 -6.13205 
-21.2661 -22.3048 -6.30025 -20.6235 -23.0462 -6.15583 -20.0547 -23.4089 -5.59351 
-23.6475 -13.5009 -4.90633 -24.197 -14.1207 -4.94263 -24.7015 -14.7352 -4.8623 
-25.2341 -15.3558 -4.68455 -25.8053 -15.9066 -4.48002 -26.2988 -16.2594 -4.21041 
-26.6759 -16.4254 -3.8402 -27.0027 -16.4995 -3.40605 -27.2744 -16.4647 -2.91214 
-12.3026 -4.39727 3.60287 -13.4187 -5.03004 3.54578 -14.7044 -5.81649 3.40622 
-16.1473 -6.72205 3.09216 -17.6096 -7.74999 2.62833 -18.937 -8.92743 2.1045 
-20.0454 -10.2158 1.56381 -20.9115 -11.5366 1.07259 -21.5747 -12.8034 0.679459 
-11.258 -4.29885 3.3614 -11.2278 -4.79353 3.10105 -11.2804 -5.35214 2.83138 
-11.4772 -5.91073 2.49154 -11.777 -6.47991 2.13877 -12.1406 -7.05482 1.80999 
-12.6065 -7.5425 1.40483 -13.1719 -7.92648 0.944294 -13.7758 -8.28813 0.555077 
-12.0362 -3.82259 3.85442 -12.9878 -3.784 4.01281 -14.1617 -3.7777 4.107 
-15.4523 -3.83345 4.18337 -16.7627 -3.93479 4.19856 -17.9854 -4.01696 4.05423 
-18.9903 -4.10266 3.76992 -19.8174 -4.27158 3.44859 -20.6062 -4.51596 3.14597 
-10.3039 -3.67218 3.43419 -9.24731 -3.45754 3.14068 -8.14175 -3.24577 2.77197 
-7.01115 -3.09887 2.4139 -5.92493 -3.06691 2.0723 -4.97187 -3.10939 1.68245 
-4.2142 -3.16162 1.25239 -3.67501 -3.21222 0.773663 -3.35632 -3.26285 0.197235 
-10.7415 -3.30214 3.74163 -10.1778 -2.52932 3.7288 -9.72308 -1.58131 3.59661 
-9.44519 -0.553239 3.46786 -9.38327 0.448054 3.36726 -9.57706 1.30336 3.15866 
-9.9691 1.94197 2.82563 -10.4379 2.40454 2.51047 -10.9272 2.72985 2.24738 
-21.5802 -13.8151 0.3058 -21.0639 -13.541 0.207926 -20.5162 -13.1047 0.0975577 
-19.8564 -12.569 0.078918 -19.073 -11.9763 0.174913 -18.2322 -11.2603 0.268119 
-17.3558 -10.4196 0.29157 -16.4119 -9.62236 0.293946 -15.4014 -9.02967 0.290051 
-22.3101 -13.2954 0.576092 -22.4888 -12.5428 0.851655 -22.6189 -11.7173 1.21211 
-22.7366 -10.8081 1.58296 -22.82 -9.79064 1.89533 -22.7719 -8.72835 2.18083 
-22.5537 -7.68035 2.42902 -22.2125 -6.64539 2.60489 -21.8031 -5.65796 2.74358 
-22.2224 -15.0037 -0.0130447 -22.3016 -16.1584 -0.456236 -22.3043 -17.3793 -0.933283 
-22.176 -18.6427 -1.38639 -21.9038 -19.9707 -1.81185 -21.5463 -21.2649 -2.21368 
-21.1196 -22.2982 -2.63739 -20.5996 -22.9907 -3.22657 -20.0823 -23.377 -4.01788 
-22.7125 -14.6303 0.166846 -23.3563 -15.2883 -0.00418212 -24.0277 -15.8771 -0.129496 
-24.7611 -16.336 -0.289815 -25.4933 -16.6386 -0.570291 -26.1027 -16.8034 -0.89041 
-26.6067 -16.841 -1.18947 -27.0385 -16.7637 -1.53783 -27.3206 -16.5755 -1.95424 
-14.8616 -7.92995 -2.86089 -14.581 -7.99624 -2.62837 -14.3309 -8.13907 -2.37459 
-14.1116 -8.35614 -2.11095 -13.9468 -8.56446 -1.77572 -13.8403 -8.72492 -1.36059 
-13.8171 -8.8338 -0.894768 -13.9235 -8.85136 -0.424737 -14.1369 -8.77571 -0.0361323 
-16.7953 -9.28031 -2.97375 -18.1468 -11.367 -3.19983 -18.8761 -13.6659 -3.72894 
-19.0276 -15.6274 -4.36722 -19.0846 -17.3631 -4.81519 -19.2937 -19.1921 -5 
-19.4032 -20.9064 -5.09807 -19.337 -22.1953 -5.18212 -19.3911 -23.0237 -5.12018 
-13.3421 -7.15054 -3.07279 -11.7009 -6.81034 -3.02317 -10.3077 -6.31931 -2.73958 
-8.87921 -5.63879 -2.39064 -7.39489 -5.21438 -2.13954 -6.06913 -4.96672 -1.91769 
-4.94639 -4.60622 -1.65355 -4.06558 -4.22337 -1.33107 -3.51099 -3.82418 -0.911508 
-15.6807 -9.40667 -0.0835471 -17.0089 -10.6586 -0.5777 -18.1217 -12.5208 -1.19192 
-18.8593 -14.7372 -1.81222 -19.2677 -16.9642 -2.38653 -19.4591 -19.0807 -2.90136 
-19.4762 -20.9371 -3.34506 -19.4023 -22.2775 -3.77842 -19.4378 -23.0597 -4.27961 
-12.9563 -8.27244 0.310235 -11.5016 -7.96912 0.347117 -10.0558 -7.62473 0.397292 
-8.60459 -7.22986 0.407975 -7.22953 -6.82726 0.346275 -5.99153 -6.35961 0.269946 
-4.89863 -5.78206 0.160119 -4.06313 -5.09146 -0.0279626 -3.54623 -4.24963 -0.239255 
-21.3351 -3.4965 -0.803403 -21.4887 -3.37559 -0.394603 -21.5998 -3.25102 0.0688527 
-21.6968 -3.13889 0.582255 -21.7607 -3.12413 1.14675 -21.7309 -3.28724 1.68448 
-21.6421 -3.60447 2.12203 -21.5718 -3.99172 2.46509 -21.4978 -4.38983 2.71362 
-22.0779 -4.48593 -1.23784 -23.0717 -5.44792 -1.37271 -24.1019 -6.46817 -1.56722 
-25.1098 -7.52904 -1.8041 -25.9705 -8.82663 -2.09333 -26.644 -10.5619 -2.42497 
-27.1539 -12.4587 -2.63523 -27.4352 -14.0555 -2.62101 -27.4831 -15.2706 -2.49393 
-20.3338 -2.69858 -0.819009 -19.45 -1.69905 -0.46815 -18.5099 -0.673313 -0.137455 
-17.5216 0.264411 0.189547 -16.5118 1.07477 0.549086 -15.5267 1.79952 0.882124 
-14.5441 2.36558 1.1781 -13.5033 2.69076 1.49117 -12.4312 2.84422 1.7723 
-22.3861 -5.5817 2.50209 -23.3988 -6.54832 2.08127 -24.3897 -7.71093 1.62509 
-25.3748 -8.96218 1.16433 -26.1672 -10.2285 0.62459 -26.6665 -11.6076 -0.0414771 
-27.0448 -13.0225 -0.719534 -27.3466 -14.2678 -1.32193 -27.4689 -15.3311 -1.87006 
-20.4533 -3.74026 3.14637 -19.5372 -2.62077 3.44023 -18.6132 -1.48095 3.67633 
-17.6039 -0.400057 3.74642 -16.4993 0.62283 3.62666 -15.3874 1.50544 3.40312 
-14.3137 2.08923 3.116 -13.2637 2.4256 2.74957 -12.2744 2.68299 2.34066 
-20.524 -23.6215 -4.82164 -21.6519 -23.4469 -4.61909 -22.9299 -22.9404 -4.2518 
-24.059 -22.3113 -3.87702 -24.9318 -21.5545 -3.58572 -25.7303 -20.5516 -3.33285 
-26.4917 -19.4968 -3.08819 -27.0108 -18.4851 -2.85239 -27.2673 -17.3891 -2.61079 
-3.11075 -2.19508 -0.208092 -3.20683 -1.1051 0.0181348 -3.72978 -0.269623 0.238324 
-4.63075 0.480507 0.435548 -5.61279 1.36578 0.62299 -6.63366 2.16729 0.867253 
-7.83306 2.68497 1.18586 -9.10881 2.9539 1.49834 -10.3065 3.00442 1.74791 
-12.8578 -1.99595 -2.85174 -12.8081 -2.60582 -2.99584 -14.1949 -2.83712 -2.95756 
-12.8526 -3.26246 -3.16707 -14.3284 -3.48472 -3.14184 -15.7517 -3.85538 -3.13083 
-13.0646 -3.96944 -3.31927 -14.579 -4.21509 -3.30465 -16.0673 -4.65466 -3.31122 
-17.3746 -5.23313 -3.28645 -13.4816 -4.76045 -3.35942 -15.0382 -5.12278 -3.3517 
-16.5435 -5.68757 -3.38482 -17.8466 -6.3545 -3.41419 -18.957 -6.97138 -3.4474 
-14.1234 -5.65035 -3.26701 -15.71 -6.1914 -3.29262 -17.1726 -6.9516 -3.39424 
-18.4125 -7.70952 -3.48048 -19.4486 -8.32001 -3.59876 -20.3446 -8.73973 -3.76668 
-14.963 -6.63856 -3.13266 -16.5102 -7.35931 -3.20083 -17.8208 -8.29225 -3.44256 
-18.9029 -9.11376 -3.65147 -19.8411 -9.70052 -3.80831 -20.6529 -10.0732 -4.02801 
-21.3557 -10.2992 -4.21374 -15.8345 -7.66784 -3.05962 -17.2827 -8.58331 -3.16578 
-18.3906 -9.62877 -3.51618 -19.2319 -10.4602 -3.89468 -20.0236 -11.0004 -4.13086 
-20.775 -11.3441 -4.3389 -21.4395 -11.5521 -4.54452 -22.0366 -11.669 -4.62128 
-10.6263 -1.01307 -2.80872 -9.34003 -0.866589 -2.7736 -10.3444 -1.62082 -2.92606 
-7.99229 -0.92306 -2.67578 -9.03876 -1.56659 -2.87503 -10.2166 -2.34269 -3.03837 
-6.69652 -1.16472 -2.51604 -7.72121 -1.73112 -2.77289 -8.9573 -2.37548 -2.97209 
-10.3021 -3.12732 -3.1804 -5.56038 -1.49268 -2.31155 -6.49828 -2.0548 -2.61597 
-7.7129 -2.63167 -2.84951 -9.11885 -3.26628 -3.05655 -10.5329 -3.96538 -3.29587 
-4.63828 -1.91958 -2.07267 -5.50427 -2.46665 -2.38155 -6.62509 -3.04096 -2.66453 
-8.01726 -3.59412 -2.85041 -9.46729 -4.22377 -3.09383 -10.91 -4.86584 -3.33089 
-3.97142 -2.50867 -1.76308 -4.77637 -2.99904 -2.07323 -5.82371 -3.52908 -2.38396 
-7.1379 -4.01147 -2.59839 -8.61519 -4.54365 -2.79367 -10.0312 -5.20924 -3.10501 
-11.5513 -5.77264 -3.29983 -3.6037 -3.18474 -1.36685 -4.29718 -3.62228 -1.72051 
-5.27816 -4.07277 -2.0267 -6.50422 -4.47543 -2.28032 -7.95091 -4.8485 -2.47191 
-9.42691 -5.46208 -2.7564 -10.8184 -6.11748 -3.09716 -12.4187 -6.55425 -3.21817 
-3.92138 -4.69508 -0.746638 -4.64138 -5.47544 -0.553643 -4.66964 -5.0513 -1.18214 
-5.66244 -6.18543 -0.386705 -5.58947 -5.8447 -1.02058 -5.72844 -5.42492 -1.51321 
-6.8461 -6.77391 -0.259883 -6.70631 -6.54018 -0.892379 -6.74148 -6.15592 -1.40008 
-6.966 -5.67748 -1.79029 -8.15701 -7.26046 -0.127611 -7.94293 -7.13222 -0.762202 
[...]
POINT_DATA 1002
FIELD FieldData 4
_paraPhi 1 1002 double
6.2831853072 3.1415926536 6.2831853072 3.1415926536 4.7123889804 4.7123889804 1.5707963268 1.5707963268 3.6951670125 
5.7296109483 2.5880182947 0.5535743589 6.2831853072 6.2831853072 6.2831853072 6.2831853072 3.1415926536 3.1415926536 
3.1415926536 3.1415926536 3.1415926536 6.1053039672 5.898798347 5.6768734901 5.4599499503 5.2659633393 5.1032165617 
4.9713148346 4.8656852733 4.7809517865 0.17788134 0.38438696014 0.60631181711 0.82323535693 1.0172219679 1.1799687454 
1.3118704726 1.4175000338 1.5022335207 6.1892828907 6.1070320098 6.035312792 5.9728339911 5.9183214791 5.8706119594 
5.8286879411 5.7916808611 5.7588591896 0.093902416448 0.17615329733 0.2478725152 0.31035131605 0.36486382811 0.41257334776 
0.45449736604 0.4915044461 0.52432611754 3.3194739936 3.5259796137 3.7479044707 3.9648280105 4.1588146215 4.321561399 
4.4534631262 4.5590926874 4.6438261743 2.9637113136 2.7572056934 2.5352808365 2.3183572967 2.1243706857 1.9616239082 
1.829722181 1.7240926197 1.6393591329 3.23549507 3.3177459509 3.3894651688 3.4519439696 3.5064564817 3.5541660013 
3.5960900196 3.6330970997 3.6659187711 3.0476902371 2.9654393563 2.8937201384 2.8312413375 2.7767288255 2.7290193058 
2.6870952876 2.6500882075 2.617266536 6.2831853072 6.2831853072 6.2831853072 6.2831853072 3.1415926536 3.1415926536 
3.1415926536 3.1415926536 3.1415926536 6.1053039672 5.898798347 5.6768734901 5.4599499503 5.2659633393 5.1032165617 
4.9713148346 4.8656852733 4.7809517865 0.17788134 0.38438696014 0.60631181711 0.82323535693 1.0172219679 1.1799687454 
1.3118704726 1.4175000338 1.5022335207 6.1892828907 6.1070320098 6.035312792 5.9728339911 5.9183214791 5.8706119594 
5.8286879411 5.7916808611 5.7588591896 0.093902416448 0.17615329733 0.2478725152 0.31035131605 0.36486382811 0.41257334776 
0.45449736604 0.4915044461 0.52432611754 3.3194739936 3.5259796137 3.7479044707 3.9648280105 4.1588146215 4.321561399 
4.4534631262 4.5590926874 4.6438261743 2.9637113136 2.7572056934 2.5352808365 2.3183572967 2.1243706857 1.9616239082 
1.829722181 1.7240926197 1.6393591329 3.23549507 3.3177459509 3.3894651688 3.4519439696 3.5064564817 3.5541660013 
3.5960900196 3.6330970997 3.6659187711 3.0476902371 2.9654393563 2.8937201384 2.8312413375 2.7767288255 2.7290193058 
2.6870952876 2.6500882075 2.617266536 4.7123889804 4.7123889804 4.7123889804 4.7123889804 4.7123889804 4.7123889804 
4.7123889804 4.7123889804 4.7123889804 4.6087898617 4.4991390697 4.3857031936 4.2712800401 4.1588146215 4.0509635631 
3.94975894 3.8564636551 3.7716124825 4.8159880991 4.9256388911 5.0390747672 5.1534979207 5.2659633393 5.3738143976 
5.4750190208 5.5683143056 5.6531654782 4.6087898617 4.4991390697 4.3857031936 4.2712800401 4.1588146215 4.0509635631 
3.94975894 3.8564636551 3.7716124825 4.8159880991 4.9256388911 5.0390747672 5.1534979207 5.2659633393 5.3738143976 
5.4750190208 5.5683143056 5.6531654782 1.5707963268 1.5707963268 1.5707963268 1.5707963268 1.5707963268 1.5707963268 
1.5707963268 1.5707963268 1.5707963268 1.6743954455 1.7840462375 1.8974821136 2.0119052671 2.1243706857 2.232221744 
2.3334263672 2.426721652 2.5115728246 1.4671972081 1.3575464161 1.24411054 1.1296873865 1.0172219679 0.90937090954 
0.80816628637 0.71487100155 0.63001982895 1.6743954455 1.7840462375 1.8974821136 2.0119052671 2.1243706857 2.232221744 
2.3334263672 2.426721652 2.5115728246 1.4671972081 1.3575464161 1.24411054 1.1296873865 1.0172219679 0.90937090954 
0.80816628637 0.71487100155 0.63001982895 3.6007720849 3.4966939854 3.3839471039 3.2645756454 3.1415926536 3.0186096618 
2.8992382033 2.7864913217 2.6824132222 5.8240058758 5.9280839753 6.0408308569 6.1602023154 6.2831853072 0.12298299178 
0.2423544503 0.35510133185 0.45917943135 6.0560271438 5.7885595667 5.9702140275 5.5125918794 5.6029703303 5.7885595667 
5.2659633393 5.2659633393 5.2659633393 5.2659633393 5.0674903122 5.0120975802 4.9155579264 4.7123889804 4.1588146215 
4.9155579264 4.8353719722 4.7123889804 4.5092200343 4.1588146215 3.6362183941 4.8004512023 4.7123889804 4.5894059886 
4.4126803806 4.1588146215 3.8218076305 3.4545639333 4.7123889804 4.6243267584 4.5092200343 4.3572876485 4.1588146215 
3.9121860814 3.6362183941 3.368750817 6.0174235957 5.9434319871 5.8263323547 5.8809213739 5.7674481418 5.6279784266 
5.8278025282 5.718968232 5.5891129425 5.4372443565 5.7823484065 5.678536687 5.5575666702 5.4192596322 5.2659633393 
5.743164462 5.6444075337 5.5314983644 5.4046708639 5.2659633393 5.1195510325 5.7091357773 5.6152775188 5.5096229709 
5.3926039573 5.2659633393 5.1329233157 4.9978930058 5.6793730533 5.5901633916 5.4910209005 5.3824597928 5.2659633393 
5.1440684722 5.0201624502 4.8979782167 5.5683143056 5.4750190208 5.4750190208 5.3738143976 5.3738143976 5.3738143976 
5.2659633393 5.2659633393 5.2659633393 5.2659633393 5.1534979207 5.1534979207 5.1534979207 5.1534979207 5.1534979207 
5.0390747672 5.0390747672 5.0390747672 5.0390747672 5.0390747672 5.0390747672 4.9256388911 4.9256388911 4.9256388911 
4.9256388911 4.9256388911 4.9256388911 4.9256388911 4.8159880991 4.8159880991 4.8159880991 4.8159880991 4.8159880991 
4.8159880991 4.8159880991 4.8159880991 4.6087898617 4.6087898617 4.4991390697 4.6087898617 4.4991390697 4.3857031936 
4.6087898617 4.4991390697 4.3857031936 4.2712800401 4.6087898617 4.4991390697 4.3857031936 4.2712800401 4.1588146215 
4.6087898617 4.4991390697 4.3857031936 4.2712800401 4.1588146215 4.0509635631 4.6087898617 4.4991390697 4.3857031936 
4.2712800401 4.1588146215 4.0509635631 3.94975894 4.6087898617 4.4991390697 4.3857031936 4.2712800401 4.1588146215 
4.0509635631 3.94975894 3.8564636551 4.526799744 4.4046155105 4.426884955 4.2807094886 4.2918546451 4.3052269283 
4.1588146215 4.1588146215 4.1588146215 4.1588146215 4.042318168 4.0321740035 4.0201070968 4.0055183285 3.9875336042 
3.9337570603 3.9151549899 3.8932795963 3.8672112905 3.8356650183 3.7967995342 3.8346145692 3.809500442 3.7803704271 
3.7462412737 3.7058097288 3.657329819 3.5984456061 3.7454049075 3.7156421835 3.6816134988 3.6424295543 3.5969754326 
3.5438565869 3.4813459737 3.4073543651 3.5642842451 3.4524645613 3.5233842518 3.3320300872 3.403123212 3.4773852225 
3.20576226 3.2746326772 3.348015857 3.4255060145 3.0774230472 3.1415926536 3.2112816139 3.2864685043 3.3668817272 
2.95115522 3.00855263 3.0719036933 3.1415926536 3.2178377658 3.3005964304 2.8307207459 2.8800620952 2.9351694502 
2.9967168029 3.0653475414 3.1415926536 3.225752376 2.718901062 2.7598010554 2.8058000847 2.8576792927 2.91630358 
2.9825888767 3.0574329311 3.1415926536 3.5642842451 3.5233842518 3.4524645613 3.4773852225 3.403123212 3.3320300872 
3.4255060145 3.348015857 3.2746326772 3.20576226 3.3668817272 3.2864685043 3.2112816139 3.1415926536 3.0774230472 
3.3005964304 3.2178377658 3.1415926536 3.0719036933 3.00855263 2.95115522 3.225752376 3.1415926536 3.0653475414 
2.9967168029 2.9351694502 2.8800620952 2.8307207459 3.1415926536 3.0574329311 2.9825888767 2.91630358 2.8576792927 
2.8058000847 2.7598010554 2.718901062 4.526799744 4.426884955 4.4046155105 4.3052269283 4.2918546451 4.2807094886 
4.1588146215 4.1588146215 4.1588146215 4.1588146215 3.9875336042 4.0055183285 4.0201070968 4.0321740035 4.042318168 
3.7967995342 3.8356650183 3.8672112905 3.8932795963 3.9151549899 3.9337570603 3.5984456061 3.657329819 3.7058097288 
3.7462412737 3.7803704271 3.809500442 3.8346145692 3.4073543651 3.4813459737 3.5438565869 3.5969754326 3.6424295543 
3.6816134988 3.7156421835 3.7454049075 4.7123889804 4.8004512023 4.6243267584 4.9155579264 4.7123889804 4.5092200343 
5.0674903122 4.8353719722 4.5894059886 4.3572876485 5.2659633393 5.0120975802 4.7123889804 4.4126803806 4.1588146215 
5.5125918794 5.2659633393 4.9155579264 4.5092200343 4.1588146215 3.9121860814 5.7885595667 5.6029703303 5.2659633393 
4.7123889804 4.1588146215 3.8218076305 3.6362183941 6.0560271438 5.9702140275 5.7885595667 5.2659633393 4.1588146215 
3.6362183941 3.4545639333 3.368750817 0.22715816343 0.49462574053 0.3129712797 0.77059342779 0.68021497688 0.49462574053 
1.0172219679 1.0172219679 1.0172219679 1.0172219679 1.2156949949 1.271087727 1.3676273807 1.5707963268 2.1243706857 
1.3676273807 1.447813335 1.5707963268 1.7739652728 2.1243706857 2.6469669131 1.4827341049 1.5707963268 1.6937793186 
1.8705049266 2.1243706857 2.4613776767 2.8286213739 1.5707963268 1.6588585487 1.7739652728 1.9258976586 2.1243706857 
2.3709992258 2.6469669131 2.9144344902 1.7563855631 1.8785697967 1.8563003522 2.0024758186 1.9913306621 1.9779583789 
2.1243706857 2.1243706857 2.1243706857 2.1243706857 2.2408671392 2.2510113037 2.2630782103 2.2776669786 2.295651703 
2.3494282469 2.3680303173 2.3899057108 2.4159740166 2.4475202889 2.486385773 2.448570738 2.4736848652 2.5028148801 
2.5369440334 2.5773755784 2.6258554882 2.6847397011 2.5377803997 2.5675431237 2.6015718084 2.6407557529 2.6862098746 
2.7393287203 2.8018393335 2.8758309421 1.6743954455 1.6743954455 1.7840462375 1.6743954455 1.7840462375 1.8974821136 
1.6743954455 1.7840462375 1.8974821136 2.0119052671 1.6743954455 1.7840462375 1.8974821136 2.0119052671 2.1243706857 
1.6743954455 1.7840462375 1.8974821136 2.0119052671 2.1243706857 2.232221744 1.6743954455 1.7840462375 1.8974821136 
2.0119052671 2.1243706857 2.232221744 2.3334263672 1.6743954455 1.7840462375 1.8974821136 2.0119052671 2.1243706857 
2.232221744 2.3334263672 2.426721652 1.4671972081 1.3575464161 1.4671972081 1.24411054 1.3575464161 1.4671972081 
1.1296873865 1.24411054 1.3575464161 1.4671972081 1.0172219679 1.1296873865 1.24411054 1.3575464161 1.4671972081 
0.90937090954 1.0172219679 1.1296873865 1.24411054 1.3575464161 1.4671972081 0.80816628637 0.90937090954 1.0172219679 
1.1296873865 1.24411054 1.3575464161 1.4671972081 0.71487100155 0.80816628637 0.90937090954 1.0172219679 1.1296873865 
1.24411054 1.3575464161 1.4671972081 0.60381225391 0.57404952988 0.69302191562 0.54002084522 0.66790778838 0.79216440667 
0.50083690068 0.63877777351 0.77356233629 0.90072551443 0.45538277901 0.60464862014 0.75168694275 0.89058134991 1.0172219679 
0.40226393329 0.56421707518 0.72561863695 0.87851444325 1.0172219679 1.139116835 0.33975332011 0.51573716537 0.69407236469 
0.86392567495 1.0172219679 1.1502619915 1.2630228569 0.26576171152 0.45685295248 0.6552068806 0.84594095064 1.0172219679 
1.1636342747 1.2852923014 1.3852070904 0.22715816343 0.3129712797 0.49462574053 0.49462574053 0.68021497688 0.77059342779 
1.0172219679 1.0172219679 1.0172219679 1.0172219679 2.1243706857 1.5707963268 1.3676273807 1.271087727 1.2156949949 
2.6469669131 2.1243706857 1.7739652728 1.5707963268 1.447813335 1.3676273807 2.8286213739 2.4613776767 2.1243706857 
1.8705049266 1.6937793186 1.5707963268 1.4827341049 2.9144344902 2.6469669131 2.3709992258 2.1243706857 1.9258976586 
1.7739652728 1.6588585487 1.5707963268 1.7563855631 1.8563003522 1.8785697967 1.9779583789 1.9913306621 2.0024758186 
2.1243706857 2.1243706857 2.1243706857 2.1243706857 2.295651703 2.2776669786 2.2630782103 2.2510113037 2.2408671392 
2.486385773 2.4475202889 2.4159740166 2.3899057108 2.3680303173 2.3494282469 2.6847397011 2.6258554882 2.5773755784 
2.5369440334 2.5028148801 2.4736848652 2.448570738 2.8758309421 2.8018393335 2.7393287203 2.6862098746 2.6407557529 
2.6015718084 2.5675431237 2.5377803997 5.8604937156 5.901393709 5.9723133995 5.9473927383 6.0216547488 6.0927478736 
5.9992719463 6.0767621038 6.1501452836 6.2190157008 6.0578962336 6.1383094565 6.2134963469 0 0.064169606361 
6.1241815303 6.206940195 6.2831853072 0.069688960264 0.13304002361 0.19043743361 6.1990255847 0 0.07624511221 
0.14487585072 0.20642320337 0.26153055843 0.3108719077 0 0.084159722458 0.15900377685 0.22528907359 0.28391336087 
0.3357925689 0.38179159818 0.42269159155 5.8604937156 5.9723133995 5.901393709 6.0927478736 6.0216547488 5.9473927383 
6.2190157008 6.1501452836 6.0767621038 5.9992719463 0.064169606361 0 6.2134963469 6.1383094565 6.0578962336 
0.19043743361 0.13304002361 0.069688960264 6.2831853072 6.206940195 6.1241815303 0.3108719077 0.26153055843 0.20642320337 
0.14487585072 0.07624511221 6.2831853072 6.1990255847 0.42269159155 0.38179159818 0.3357925689 0.28391336087 0.22528907359 
0.15900377685 0.084159722458 0 5.6793730533 5.7091357773 5.5901633916 5.743164462 5.6152775188 5.4910209005 
5.7823484065 5.6444075337 5.5096229709 5.3824597928 5.8278025282 5.678536687 5.5314983644 5.3926039573 5.2659633393 
5.8809213739 5.718968232 5.5575666702 5.4046708639 5.2659633393 5.1440684722 5.9434319871 5.7674481418 5.5891129425 
5.4192596322 5.2659633393 5.1329233157 5.0201624502 6.0174235957 5.8263323547 5.6279784266 5.4372443565 5.2659633393 
5.1195510325 4.9978930058 4.8979782167 1.3852070904 1.2852923014 1.2630228569 1.1636342747 1.1502619915 1.139116835 
1.0172219679 1.0172219679 1.0172219679 1.0172219679 0.84594095064 0.86392567495 0.87851444325 0.89058134991 0.90072551443 
0.6552068806 0.69407236469 0.72561863695 0.75168694275 0.77356233629 0.79216440667 0.45685295248 0.51573716537 0.56421707518 
0.60464862014 0.63877777351 0.66790778838 0.69302191562 0.26576171152 0.33975332011 0.40226393329 0.45538277901 0.50083690068 
0.54002084522 0.57404952988 0.60381225391 
_paraPhiHalf 1 1002 double
0 3.1415926536 0 3.1415926536 1.5707963268 1.5707963268 1.5707963268 1.5707963268 2.5880182947 
0.5535743589 2.5880182947 0.5535743589 0 0 0 0 3.1415926536 3.1415926536 
3.1415926536 3.1415926536 3.1415926536 0.17788134 0.38438696014 0.60631181711 0.82323535693 1.0172219679 1.1799687454 
1.3118704726 1.4175000338 1.5022335207 0.17788134 0.38438696014 0.60631181711 0.82323535693 1.0172219679 1.1799687454 
1.3118704726 1.4175000338 1.5022335207 0.093902416448 0.17615329733 0.2478725152 0.31035131605 0.36486382811 0.41257334776 
0.45449736604 0.4915044461 0.52432611754 0.093902416448 0.17615329733 0.2478725152 0.31035131605 0.36486382811 0.41257334776 
0.45449736604 0.4915044461 0.52432611754 2.9637113136 2.7572056934 2.5352808365 2.3183572967 2.1243706857 1.9616239082 
1.829722181 1.7240926197 1.6393591329 2.9637113136 2.7572056934 2.5352808365 2.3183572967 2.1243706857 1.9616239082 
1.829722181 1.7240926197 1.6393591329 3.0476902371 2.9654393563 2.8937201384 2.8312413375 2.7767288255 2.7290193058 
2.6870952876 2.6500882075 2.617266536 3.0476902371 2.9654393563 2.8937201384 2.8312413375 2.7767288255 2.7290193058 
2.6870952876 2.6500882075 2.617266536 0 0 0 0 3.1415926536 3.1415926536 
3.1415926536 3.1415926536 3.1415926536 0.17788134 0.38438696014 0.60631181711 0.82323535693 1.0172219679 1.1799687454 
1.3118704726 1.4175000338 1.5022335207 0.17788134 0.38438696014 0.60631181711 0.82323535693 1.0172219679 1.1799687454 
1.3118704726 1.4175000338 1.5022335207 0.093902416448 0.17615329733 0.2478725152 0.31035131605 0.36486382811 0.41257334776 
0.45449736604 0.4915044461 0.52432611754 0.093902416448 0.17615329733 0.2478725152 0.31035131605 0.36486382811 0.41257334776 
0.45449736604 0.4915044461 0.52432611754 2.9637113136 2.7572056934 2.5352808365 2.3183572967 2.1243706857 1.9616239082 
1.829722181 1.7240926197 1.6393591329 2.9637113136 2.7572056934 2.5352808365 2.3183572967 2.1243706857 1.9616239082 
1.829722181 1.7240926197 1.6393591329 3.0476902371 2.9654393563 2.8937201384 2.8312413375 2.7767288255 2.7290193058 
2.6870952876 2.6500882075 2.617266536 3.0476902371 2.9654393563 2.8937201384 2.8312413375 2.7767288255 2.7290193058 
2.6870952876 2.6500882075 2.617266536 1.5707963268 1.5707963268 1.5707963268 1.5707963268 1.5707963268 1.5707963268 
1.5707963268 1.5707963268 1.5707963268 1.6743954455 1.7840462375 1.8974821136 2.0119052671 2.1243706857 2.232221744 
2.3334263672 2.426721652 2.5115728246 1.4671972081 1.3575464161 1.24411054 1.1296873865 1.0172219679 0.90937090954 
0.80816628637 0.71487100155 0.63001982895 1.6743954455 1.7840462375 1.8974821136 2.0119052671 2.1243706857 2.232221744 
2.3334263672 2.426721652 2.5115728246 1.4671972081 1.3575464161 1.24411054 1.1296873865 1.0172219679 0.90937090954 
0.80816628637 0.71487100155 0.63001982895 1.5707963268 1.5707963268 1.5707963268 1.5707963268 1.5707963268 1.5707963268 
1.5707963268 1.5707963268 1.5707963268 1.6743954455 1.7840462375 1.8974821136 2.0119052671 2.1243706857 2.232221744 
2.3334263672 2.426721652 2.5115728246 1.4671972081 1.3575464161 1.24411054 1.1296873865 1.0172219679 0.90937090954 
0.80816628637 0.71487100155 0.63001982895 1.6743954455 1.7840462375 1.8974821136 2.0119052671 2.1243706857 2.232221744 
2.3334263672 2.426721652 2.5115728246 1.4671972081 1.3575464161 1.24411054 1.1296873865 1.0172219679 0.90937090954 
0.80816628637 0.71487100155 0.63001982895 2.6824132222 2.7864913217 2.8992382033 3.0186096618 3.1415926536 3.0186096618 
2.8992382033 2.7864913217 2.6824132222 0.45917943135 0.35510133185 0.2423544503 0.12298299178 0 0.12298299178 
0.2423544503 0.35510133185 0.45917943135 0.22715816343 0.49462574053 0.3129712797 0.77059342779 0.68021497688 0.49462574053 
1.0172219679 1.0172219679 1.0172219679 1.0172219679 1.2156949949 1.271087727 1.3676273807 1.5707963268 2.1243706857 
1.3676273807 1.447813335 1.5707963268 1.7739652728 2.1243706857 2.6469669131 1.4827341049 1.5707963268 1.6937793186 
1.8705049266 2.1243706857 2.4613776767 2.8286213739 1.5707963268 1.6588585487 1.7739652728 1.9258976586 2.1243706857 
2.3709992258 2.6469669131 2.9144344902 0.26576171152 0.33975332011 0.45685295248 0.40226393329 0.51573716537 0.6552068806 
0.45538277901 0.56421707518 0.69407236469 0.84594095064 0.50083690068 0.60464862014 0.72561863695 0.86392567495 1.0172219679 
0.54002084522 0.63877777351 0.75168694275 0.87851444325 1.0172219679 1.1636342747 0.57404952988 0.66790778838 0.77356233629 
0.89058134991 1.0172219679 1.1502619915 1.2852923014 0.60381225391 0.69302191562 0.79216440667 0.90072551443 1.0172219679 
1.139116835 1.2630228569 1.3852070904 0.71487100155 0.80816628637 0.80816628637 0.90937090954 0.90937090954 0.90937090954 
1.0172219679 1.0172219679 1.0172219679 1.0172219679 1.1296873865 1.1296873865 1.1296873865 1.1296873865 1.1296873865 
1.24411054 1.24411054 1.24411054 1.24411054 1.24411054 1.24411054 1.3575464161 1.3575464161 1.3575464161 
1.3575464161 1.3575464161 1.3575464161 1.3575464161 1.4671972081 1.4671972081 1.4671972081 1.4671972081 1.4671972081 
1.4671972081 1.4671972081 1.4671972081 1.6743954455 1.6743954455 1.7840462375 1.6743954455 1.7840462375 1.8974821136 
1.6743954455 1.7840462375 1.8974821136 2.0119052671 1.6743954455 1.7840462375 1.8974821136 2.0119052671 2.1243706857 
1.6743954455 1.7840462375 1.8974821136 2.0119052671 2.1243706857 2.232221744 1.6743954455 1.7840462375 1.8974821136 
2.0119052671 2.1243706857 2.232221744 2.3334263672 1.6743954455 1.7840462375 1.8974821136 2.0119052671 2.1243706857 
2.232221744 2.3334263672 2.426721652 1.7563855631 1.8785697967 1.8563003522 2.0024758186 1.9913306621 1.9779583789 
2.1243706857 2.1243706857 2.1243706857 2.1243706857 2.2408671392 2.2510113037 2.2630782103 2.2776669786 2.295651703 
2.3494282469 2.3680303173 2.3899057108 2.4159740166 2.4475202889 2.486385773 2.448570738 2.4736848652 2.5028148801 
2.5369440334 2.5773755784 2.6258554882 2.6847397011 2.5377803997 2.5675431237 2.6015718084 2.6407557529 2.6862098746 
2.7393287203 2.8018393335 2.8758309421 2.718901062 2.8307207459 2.7598010554 2.95115522 2.8800620952 2.8058000847 
3.0774230472 3.00855263 2.9351694502 2.8576792927 3.0774230472 3.1415926536 3.0719036933 2.9967168029 2.91630358 
2.95115522 3.00855263 3.0719036933 3.1415926536 3.0653475414 2.9825888767 2.8307207459 2.8800620952 2.9351694502 
2.9967168029 3.0653475414 3.1415926536 3.0574329311 2.718901062 2.7598010554 2.8058000847 2.8576792927 2.91630358 
2.9825888767 3.0574329311 3.1415926536 2.718901062 2.7598010554 2.8307207459 2.8058000847 2.8800620952 2.95115522 
2.8576792927 2.9351694502 3.00855263 3.0774230472 2.91630358 2.9967168029 3.0719036933 3.1415926536 3.0774230472 
2.9825888767 3.0653475414 3.1415926536 3.0719036933 3.00855263 2.95115522 3.0574329311 3.1415926536 3.0653475414 