# vtk DataFile Version 5.1
vtk output
ASCII
DATASET POLYDATA
POINTS 100 float
-4.65789 3.43053 1.6001 -4.66554 3.42845 1.59705 -4.68772 3.41936 1.59146 
-4.7236 3.40189 1.58418 -4.77189 3.37402 1.57643 -4.83102 3.33336 1.56959 
-4.89931 3.27744 1.56488 -4.97523 3.20412 1.56315 -5.05754 3.11183 1.56474 
-5.14544 2.99977 1.56938 -5.23864 2.86803 1.57627 -5.33735 2.71752 1.58428 
-5.44221 2.54987 1.5921 -5.55416 2.36717 1.59853 -5.67425 2.1717 1.60266 
-5.80351 1.96573 1.60402 -5.94277 1.75121 1.60258 -6.09257 1.52968 1.59869 
-6.25306 1.3022 1.59295 -6.42407 1.06936 1.58603 -6.60514 0.831397 1.57842 
-6.7956 0.588308 1.57038 -6.99476 0.34003 1.56183 -7.20197 0.0865427 1.55233 
-7.41671 -0.172057 1.54126 -7.63865 -0.435552 1.52792 -7.86762 -0.70366 1.51166 
-8.10353 -0.976133 1.4921 -8.34631 -1.25288 1.46912 -8.59573 -1.53405 1.44292 
-8.85133 -1.8201 1.41391 -9.11236 -2.11179 1.3826 -9.37774 -2.41006 1.34947 
-9.64617 -2.7159 1.31479 -9.91619 -3.03017 1.27855 -10.1864 -3.35341 1.24049 
-10.4556 -3.68571 1.20011 -10.723 -4.02667 1.15683 -10.9885 -4.37542 1.11012 
-11.2524 -4.73082 1.05969 -11.5155 -5.09167 1.00554 -11.7794 -5.45704 0.947994 
-12.0454 -5.8265 0.8876 -12.315 -6.20038 0.824991 -12.5891 -6.57986 0.760651 
-12.8682 -6.96691 0.694688 -13.1516 -7.36411 0.626658 -13.4377 -7.77429 0.555463 
-13.7239 -8.20011 0.47938 -14.0068 -8.64364 0.396215 -14.2825 -9.10592 0.303561 
-14.5465 -9.58671 0.199127 -14.7948 -10.0844 0.0810858 -15.0235 -10.5962 -0.0516364 
-15.2299 -11.1182 -0.199165 -15.4118 -11.646 -0.360617 -15.5684 -12.1753 -0.534189 
-15.7 -12.702 -0.717375 -15.8077 -13.2232 -0.907264 -15.8936 -13.7371 -1.10088 
-15.96 -14.2428 -1.2955 -16.0097 -14.741 -1.48888 -16.0454 -15.2329 -1.67939 
-16.0695 -15.7201 -1.86602 -16.0841 -16.2044 -2.04826 -16.0907 -16.6869 -2.22597 
-16.0903 -17.1681 -2.39916 -16.0836 -17.6479 -2.56782 -16.0708 -18.1251 -2.73178 
-16.0517 -18.5981 -2.8907 -16.0263 -19.0651 -3.04409 -15.9944 -19.5241 -3.19142 
-15.9558 -19.9735 -3.33222 -15.9108 -20.4122 -3.46619 -15.8598 -20.8396 -3.59331 
-15.8038 -21.2555 -3.71377 -15.7438 -21.66 -3.82797 -15.6816 -22.0531 -3.93634 
-15.6188 -22.4345 -4.0392 -15.5576 -22.8037 -4.13666 -15.5001 -23.1594 -4.22849 
-15.4483 -23.4999 -4.31414 -15.4041 -23.8232 -4.39279 -15.3689 -24.1274 -4.46352 
-15.3436 -24.4109 -4.52551 -15.3286 -24.6725 -4.57819 -15.3237 -24.9121 -4.6215 
-15.3279 -25.1304 -4.65585 -15.3401 -25.3286 -4.68223 -15.3585 -25.5086 -4.70202 
-15.3811 -25.6723 -4.71684 -15.4062 -25.8215 -4.72828 -15.4318 -25.9573 -4.73772 
-15.4564 -26.0798 -4.74612 -15.4787 -26.1884 -4.75393 -15.4977 -26.2817 -4.76111 
-15.513 -26.3576 -4.76724 -15.524 -26.4139 -4.77166 -15.5306 -26.4487 -4.77375 
-15.5327 -26.4606 -4.77305 
LINES 2 100
OFFSETS vtktypeint64
0 100 
CONNECTIVITY vtktypeint64
0 1 2 3 4 5 6 7 8 
9 10 11 12 13 14 15 16 17 
18 19 20 21 22 23 24 25 26 
27 28 29 30 31 32 33 34 35 
36 37 38 39 40 41 42 43 44 
45 46 47 48 49 50 51 52 53 
54 55 56 57 58 59 60 61 62 
63 64 65 66 67 68 69 70 71 
72 73 74 75 76 77 78 79 80 
81 82 83 84 85 86 87 88 89 
90 91 92 93 94 95 96 97 98 
99 
POINT_DATA 100
FIELD FieldData 3
_theta 1 100 double
0 0.031733259127 0.063466518254 0.095199777382 0.12693303651 0.15866629564 0.19039955476 0.22213281389 0.25386607302 
0.28559933214 0.31733259127 0.3490658504 0.38079910953 0.41253236865 0.44426562778 0.47599888691 0.50773214603 0.53946540516 
0.57119866429 0.60293192342 0.63466518254 0.66639844167 0.6981317008 0.72986495992 0.76159821905 0.79333147818 0.82506473731 
0.85679799643 0.88853125556 0.92026451469 0.95199777382 0.98373103294 1.0154642921 1.0471975512 1.0789308103 1.1106640695 
1.1423973286 1.1741305877 1.2058638468 1.237597106 1.2693303651 1.3010636242 1.3327968833 1.3645301425 1.3962634016 
1.4279966607 1.4597299198 1.491463179 1.5231964381 1.5549296972 1.5866629564 1.6183962155 1.6501294746 1.6818627337 
1.7135959929 1.745329252 1.7770625111 1.8087957702 1.8405290294 1.8722622885 1.9039955476 1.9357288068 1.9674620659 
1.999195325 2.0309285841 2.0626618433 2.0943951024 2.1261283615 2.1578616206 2.1895948798 2.2213281389 2.253061398 
2.2847946572 2.3165279163 2.3482611754 2.3799944345 2.4117276937 2.4434609528 2.4751942119 2.506927471 2.5386607302 
2.5703939893 2.6021272484 2.6338605076 2.6655937667 2.6973270258 2.7290602849 2.7607935441 2.7925268032 2.8242600623 
2.8559933214 2.8877265806 2.9194598397 2.9511930988 2.982926358 3.0146596171 3.0463928762 3.0781261353 3.1098593945 
3.1415926536 
_radius 1 100 double
7.6015828159e-15 0.2938706392 0.5864540927 0.8764281965 1.1625951578 1.4438721863 1.7192265747 1.9875826149 2.2477426562 
2.4983631382 2.7380086491 2.9652801852 3.1789888076 3.3783318069 3.5630281525 3.7333803992 3.8902458731 4.0349163097 
4.168919909 4.2937725472 4.4107156122 4.5204855828 4.623162374 4.7181363412 4.8042160624 4.8798725663 4.9435858913 
4.9942335337 5.0314437061 5.0558341327 5.0690719517 5.0737216043 5.072890338 5.0697256876 5.0668543505 5.0658676378 
5.0669516325 5.0687343185 5.0683861496 5.0619733121 5.0450281063 5.0132679155 4.9633634164 4.8936335393 4.8045391692 
4.6988680201 4.581550595 4.4591144372 4.3388594655 4.2279090096 4.1323406101 4.0565882692 4.0031961236 3.9728438244 
3.964502642 3.9756682497 4.0027034423 4.0412898951 4.0869114778 4.135284568 4.1826939141 4.2262200976 4.2638496293 
4.294467927 4.317754156 4.3340092863 4.3439468823 4.3484698073 4.3484575695 4.3445973773 4.3372927354 4.3266639553 
4.3126192745 4.2949435602 4.2733446021 4.2474204759 4.2165534748 4.1797757016 4.1356699902 4.0823596998 4.0176089224 
3.9390179442 3.8442741318 3.7314119843 3.5990423155 3.4465196997 3.274024446 3.082542894 2.8737432758 2.6497655027 
2.4129659399 2.1656711234 1.9099890237 1.6477048746 1.380261906 1.108806967 0.83427176893 0.55746085479 0.2791239051 
2.8342245176e-14 
_area 1 100 double
0 0.23735990993 0.94584327779 2.1147762754 3.7265682703 5.7565456297 8.1722823783 10.932698737 13.987594886 
17.278398973 20.740673122 24.308425906 27.919681454 31.522200415 35.077870933 38.564310508 41.97293312 45.304102919 
48.561226531 51.745684572 54.853336335 57.872127948 60.78008292 63.543554997 66.116502975 68.44233007 70.460110373 
72.116096394 73.378897886 74.253597877 74.788522453 75.070307834 75.208005965 75.312033624 75.47480603 75.756257833 
76.173059555 76.689579163 77.212075373 77.591860789 77.643857436 77.182089086 76.065395406 74.239873015 71.7632428 
68.801245292 65.594842305 62.406776699 59.466543631 56.937801051 54.914824143 53.428289456 52.451143315 51.918584008 
51.757327003 51.899755301 52.274274171 52.792026793 53.356381786 53.889260483 54.350386949 54.733148295 55.034935429 
55.228262436 55.268775435 55.129914563 54.825840612 54.408259066 53.943943913 53.485703318 53.050879884 52.618130132 
52.143397398 51.584030888 50.915887151 50.135233217 49.247630517 48.252378788 47.131625803 45.849015377 44.356942329 
42.607834117 40.564804218 38.209195445 35.54480608 32.59958161 29.425151268 26.093757253 22.692030443 19.312073265 
16.041741724 12.956802148 10.117142985 7.5676350479 5.3423669347 3.4697795372 1.9762479023 0.88678193977 0.22303941267 
1.740291289e-13 
