# vtk DataFile Version 5.1
vtk output
ASCII
DATASET POLYDATA
POINTS 100 float
-4.22285 3.72888 1.41477 -4.23376 3.72244 1.41194 -4.26573 3.7011 1.40703 
-4.3173 3.66505 1.4006 -4.38612 3.61459 1.39349 -4.4693 3.54998 1.38664 
-4.56369 3.47139 1.38103 -4.66621 3.37883 1.37745 -4.77417 3.27214 1.37648 
-4.88552 3.15103 1.37837 -4.99894 3.01524 1.38306 -5.11395 2.86463 1.39025 
-5.23081 2.69934 1.39944 -5.35039 2.51996 1.41006 -5.47402 2.3275 1.42153 
-5.60324 2.12345 1.43337 -5.73966 1.90963 1.44523 -5.88473 1.68801 1.45686 
-6.03965 1.46052 1.46814 -6.20525 1.22885 1.47899 -6.38199 0.994202 1.48935 
-6.56995 0.757261 1.4991 -6.76879 0.51812 1.5081 -6.97789 0.276359 1.51612 
-7.19635 0.0311699 1.52289 -7.42305 -0.218467 1.52813 -7.65676 -0.473613 1.53157 
-7.89623 -0.735218 1.53299 -8.14023 -1.00403 1.5322 -8.38767 -1.28054 1.52907 
-8.63766 -1.56502 1.52353 -8.88959 -1.85757 1.51549 -9.14312 -2.15818 1.50492 
-9.39819 -2.46677 1.49178 -9.65501 -2.78325 1.4761 -9.91396 -3.10745 1.45795 
-10.1755 -3.43913 1.43752 -10.4402 -3.7779 1.41511 -10.7085 -4.12321 1.39116 
-10.9806 -4.47438 1.36617 -11.257 -4.83065 1.34065 -11.5376 -5.19135 1.315 
-11.8225 -5.55611 1.28938 -12.1116 -5.92499 1.26364 -12.4047 -6.29869 1.23715 
-12.7015 -6.6786 1.20886 -13.0014 -7.06674 1.17727 -13.3038 -7.46564 1.14064 
-13.6073 -7.878 1.09707 -13.9101 -8.30631 1.04481 -14.2097 -8.75248 0.982458 
-14.5029 -9.21747 0.909161 -14.7861 -9.70107 0.824737 -15.0549 -10.2018 0.729712 
-15.305 -10.717 0.625255 -15.5324 -11.2433 0.513016 -15.7333 -11.7766 0.394902 
-15.9052 -12.3131 0.272837 -16.0468 -12.8493 0.148529 -16.1579 -13.3825 0.0233149 
-16.2399 -13.9111 -0.101922 -16.2953 -14.4344 -0.226724 -16.3276 -14.9526 -0.350952 
-16.3406 -15.4661 -0.474611 -16.338 -15.9759 -0.597667 -16.3235 -16.4821 -0.719886 
-16.2996 -16.9846 -0.840732 -16.2682 -17.4826 -0.959364 -16.2301 -17.9745 -1.07472 
-16.1855 -18.4585 -1.18566 -16.134 -18.9323 -1.29118 -16.0751 -19.3942 -1.3906 
-16.0084 -19.8426 -1.48369 -15.9341 -20.2769 -1.57072 -15.8532 -20.697 -1.65243 
-15.7673 -21.1034 -1.72983 -15.6787 -21.4966 -1.80401 -15.5902 -21.8772 -1.87587 
-15.5047 -22.2452 -1.94587 -15.4252 -22.6001 -2.01388 -15.3539 -22.9402 -2.07917 
-15.2929 -23.2634 -2.14045 -15.2432 -23.5674 -2.19612 -15.2052 -23.8496 -2.24455 
-15.179 -24.1081 -2.28437 -15.1638 -24.342 -2.31483 -15.1588 -24.5516 -2.3359 
-15.1631 -24.7384 -2.34841 -15.1757 -24.9052 -2.35392 -15.1954 -25.0551 -2.35451 
-15.2212 -25.1916 -2.35247 -15.2518 -25.3177 -2.34994 -15.2859 -25.4351 -2.34856 
-15.3216 -25.5445 -2.3493 -15.3572 -25.6448 -2.35231 -15.3904 -25.7338 -2.35702 
-15.4191 -25.8083 -2.36231 -15.4413 -25.8649 -2.36684 -15.4554 -25.9005 -2.36933 
-15.4602 -25.913 -2.36892 
LINES 2 100
OFFSETS vtktypeint64
0 100 
CONNECTIVITY vtktypeint64
0 1 2 3 4 5 6 7 8 
9 10 11 12 13 14 15 16 17 
18 19 20 21 22 23 24 25 26 
27 28 29 30 31 32 33 34 35 
36 37 38 39 40 41 42 43 44 
45 46 47 48 49 50 51 52 53 
54 55 56 57 58 59 60 61 62 
63 64 65 66 67 68 69 70 71 
72 73 74 75 76 77 78 79 80 
81 82 83 84 85 86 87 88 89 
90 91 92 93 94 95 96 97 98 
99 
POINT_DATA 100
FIELD FieldData 3
_theta 1 100 double
0 0.031733259127 0.063466518254 0.095199777382 0.12693303651 0.15866629564 0.19039955476 0.22213281389 0.25386607302 
0.28559933214 0.31733259127 0.3490658504 0.38079910953 0.41253236865 0.44426562778 0.47599888691 0.50773214603 0.53946540516 
0.57119866429 0.60293192342 0.63466518254 0.66639844167 0.6981317008 0.72986495992 0.76159821905 0.79333147818 0.82506473731 
0.85679799643 0.88853125556 0.92026451469 0.95199777382 0.98373103294 1.0154642921 1.0471975512 1.0789308103 1.1106640695 
1.1423973286 1.1741305877 1.2058638468 1.237597106 1.2693303651 1.3010636242 1.3327968833 1.3645301425 1.3962634016 
1.4279966607 1.4597299198 1.491463179 1.5231964381 1.5549296972 1.5866629564 1.6183962155 1.6501294746 1.6818627337 
1.7135959929 1.745329252 1.7770625111 1.8087957702 1.8405290294 1.8722622885 1.9039955476 1.9357288068 1.9674620659 
1.999195325 2.0309285841 2.0626618433 2.0943951024 2.1261283615 2.1578616206 2.1895948798 2.2213281389 2.253061398 
2.2847946572 2.3165279163 2.3482611754 2.3799944345 2.4117276937 2.4434609528 2.4751942119 2.506927471 2.5386607302 
2.5703939893 2.6021272484 2.6338605076 2.6655937667 2.6973270258 2.7290602849 2.7607935441 2.7925268032 2.8242600623 
2.8559933214 2.8877265806 2.9194598397 2.9511930988 2.982926358 3.0146596171 3.0463928762 3.0781261353 3.1098593945 
3.1415926536 
_radius 1 100 double
1.4609455112e-14 0.28454265587 0.5690285735 0.85309657614 1.1360172985 1.4166029998 1.6932051087 1.9638053152 2.2261921256 
2.4781984315 2.7179592773 2.9441389469 3.1560787695 3.3538328291 3.5380832842 3.7099526199 3.8707503993 4.021703642 
4.1637220115 4.2972415821 4.422174728 4.5379712007 4.6437720463 4.7386203156 4.8216852957 4.8924607764 4.9509088708 
4.9975334622 5.0333771533 5.0599418951 5.0790389392 5.092581968 5.1023491689 5.1097517189 5.1156501122 5.1202501373 
5.1230887123 5.1230964999 5.1187121437 5.1080278788 5.0889617219 5.0594631598 5.017756205 4.9626064041 4.8935780059 
4.8112373156 4.71726507 4.6144612779 4.5066493913 4.398499303 4.2952799867 4.2025217734 4.1255363744 4.0687633833 
4.0350356145 4.0250221692 4.0371235846 4.0678754093 4.1126677476 4.1665168172 4.2247005353 4.2831766442 4.3387868317 
4.3893022588 4.4333773173 4.4704542911 4.5006262002 4.5244468488 4.5426886116 4.5560797489 4.5650790976 4.5697441471 
4.5697152597 4.5642934539 4.5525590291 4.5334777587 4.505963965 4.4688972408 4.4211065943 4.3613388515 4.2882246366 
4.2002553083 4.0957913359 3.9731298478 3.8306543769 3.6670664933 3.4816631903 3.2745926471 3.0470120346 2.8010913258 
2.5398484656 2.2668459827 1.9858105396 1.7002472708 1.4131118479 1.1265825013 0.84195085395 0.55963172867 0.27928056675 
2.4253960383e-14 
_area 1 100 double
0 0.22465534654 0.89977408498 2.0267907207 3.602201802 5.6113317199 8.0236716524 10.79171685 13.853811693 
17.140026357 20.579283282 24.106118452 27.666158762 31.21989781 34.744383857 38.232288535 41.687931553 45.120440811 
48.535265582 51.926249658 55.270684205 58.52882462 61.647714912 64.567793832 67.230378078 69.584667981 71.593742597 
73.239457014 74.526008285 75.48142106 76.155803492 76.615442184 76.932842555 77.174373851 77.388592672 77.598818506 
77.802220705 77.974343683 78.074861446 78.050704328 77.83656207 77.356643769 76.532217103 75.296218565 73.611502842 
71.48667748 68.984215823 66.218115848 63.341294054 60.525720004 57.94018206 55.730518759 54.005334095 52.828774211 
52.220020669 52.152854954 52.55208601 53.297458011 54.245112198 55.260909066 56.248239249 57.152791967 57.939717851 
58.568966378 59.000231239 59.215693892 59.232158791 59.09411339 58.85370776 58.548925125 58.19137378 57.769010342 
57.259510375 56.644101243 55.913440353 55.063842327 54.088355056 52.969376719 51.677433364 50.176321011 48.43092177 
46.413079755 44.103428016 41.490934715 38.574062571 35.366023479 31.90265611 28.24807643 24.493268729 20.746373901 
17.117981479 13.707107673 10.592519009 7.8308181498 5.4595287722 3.5020534389 1.9720983051 0.87683285163 0.21922011768 
7.8159700934e-14 
