# vtk DataFile Version 5.1
vtk output
ASCII
DATASET POLYDATA
POINTS 1002 float
-11.8033 -0.610471 -2.85109 -23.4334 -13.0613 -4.92653 -11.3776 -3.44999 3.47271 
-22.3032 -14.0141 0.443939 -15.2694 -7.69215 -3.01504 -14.0716 -8.38165 0.264622 
-21.2193 -3.21146 -0.994875 -22.0501 -4.90446 3.10713 -19.2969 -23.765 -4.73475 
-2.75339 -3.64843 -0.198437 -27.8527 -16.2441 -2.37091 -11.182 3.19051 1.93738 
-12.7918 -1.1727 -2.92472 -13.9616 -1.87873 -2.98118 -15.3245 -2.73652 -3.05691 
-16.8818 -3.86306 -3.12473 -18.5245 -5.39212 -3.19437 -20.0352 -7.16239 -3.41204 
-21.2702 -8.84777 -3.81201 -22.2223 -10.3508 -4.249 -22.9299 -11.7452 -4.62695 
-11.6357 -1.09164 -3.04902 -11.5516 -1.69193 -3.22067 -11.584 -2.41411 -3.33702 
-11.7398 -3.19912 -3.45338 -12.0273 -3.99044 -3.63975 -12.4566 -4.78456 -3.7835 
-13.0091 -5.55612 -3.7145 -13.6731 -6.27356 -3.47407 -14.4448 -6.96944 -3.21612 
-12.6045 -0.502459 -2.70892 -13.502 -0.454585 -2.55046 -14.4826 -0.503843 -2.34669 
-15.5178 -0.677138 -2.09243 -16.5697 -0.960758 -1.82702 -17.6169 -1.30859 -1.61599 
-18.6449 -1.6952 -1.47406 -19.6109 -2.14099 -1.33101 -20.4696 -2.66175 -1.154 
-10.7447 -0.414084 -2.87091 -9.62183 -0.303404 -2.8454 -8.42835 -0.324697 -2.73326 
-7.14352 -0.465194 -2.53978 -5.83833 -0.724695 -2.2981 -4.6859 -1.18907 -1.99222 
-3.79078 -1.81014 -1.59788 -3.15707 -2.42594 -1.14412 -2.80492 -3.02598 -0.669494 
-11.3902 -0.0387355 -2.63471 -11.0151 0.548435 -2.35887 -10.6874 1.15079 -2.02966 
-10.4686 1.71378 -1.60531 -10.3662 2.22013 -1.10095 -10.3447 2.71057 -0.597294 
-10.4487 3.1224 -0.042503 -10.6799 3.33268 0.639882 -10.9426 3.32985 1.34647 
-22.982 -13.0577 -4.95352 -22.4463 -12.9561 -4.93793 -21.8057 -12.732 -4.86008 
-21.0725 -12.3758 -4.68229 -20.3187 -11.8538 -4.40607 -19.5727 -11.1476 -4.04575 
-18.7325 -10.2866 -3.63716 -17.6992 -9.32369 -3.29501 -16.5041 -8.39368 -3.09934 
-23.5708 -12.1879 -4.68684 -23.6644 -11.2194 -4.38524 -23.6573 -10.1788 -4.02959 
-23.4898 -9.0624 -3.62062 -23.2196 -7.90078 -3.1631 -22.9067 -6.7976 -2.69356 
-22.5165 -5.80576 -2.24126 -22.0683 -4.8813 -1.80077 -21.6313 -4.00339 -1.3782 
-23.5312 -14.4304 -5.2035 -23.4644 -15.9201 -5.44268 -23.1906 -17.4362 -5.63613 
-22.7423 -18.8566 -5.81563 -22.2179 -20.1336 -6.01408 -21.6217 -21.3459 -6.19223 
-20.8711 -22.4858 -6.21751 -20.0775 -23.3432 -5.95062 -19.5137 -23.755 -5.39913 
-23.9471 -13.8623 -5.01683 -24.4484 -14.7201 -5.00781 -24.963 -15.56 -4.93374 
-25.5627 -16.2545 -4.86502 -26.1997 -16.7251 -4.73919 -26.728 -16.9642 -4.4424 
-27.1721 -16.991 -4.00647 -27.5862 -16.8525 -3.49731 -27.8432 -16.5944 -2.93331 
-12.4541 -4.00592 3.53607 -13.6514 -4.70797 3.60403 -14.9449 -5.51016 3.55048 
-16.3139 -6.39354 3.27037 -17.6992 -7.44733 2.84985 -18.9838 -8.71288 2.36452 
-20.0822 -10.1023 1.81071 -20.9917 -11.5031 1.27991 -21.7294 -12.8246 0.838558 
-11.2773 -3.95024 3.31748 -11.2402 -4.4782 3.12657 -11.3061 -5.03365 2.85939 
-11.4436 -5.62407 2.54911 -11.633 -6.20309 2.24535 -11.9502 -6.75353 1.91639 
-12.4156 -7.29825 1.52942 -12.9349 -7.77036 1.11336 -13.4719 -8.10799 0.690174 
-12.1457 -3.3035 3.68568 -12.9532 -3.25564 3.97208 -13.8495 -3.31051 4.24416 
-15.0089 -3.39496 4.30648 -16.4597 -3.51489 4.17073 -17.9522 -3.76248 4.04781 
-19.2776 -4.09883 3.95625 -20.4031 -4.40121 3.76319 -21.3222 -4.65259 3.4537 
-10.2582 -3.28533 3.30191 -9.09632 -3.15201 3.05251 -7.92415 -3.03733 2.74807 
-6.71142 -2.98934 2.47734 -5.53952 -3.06966 2.22203 -4.59848 -3.28384 1.88981 
-3.86767 -3.53853 1.47764 -3.24599 -3.69512 0.990487 -2.83683 -3.71119 0.411444 
-10.8117 -2.82626 3.54698 -10.2523 -2.12104 3.59933 -9.77071 -1.2905 3.56008 
-9.44735 -0.387353 3.45321 -9.32007 0.4531 3.34609 -9.41112 1.21664 3.19044 
-9.74496 1.94582 2.93399 -10.2444 2.55458 2.63271 -10.7521 2.95985 2.31189 
-21.8384 -13.9319 0.422252 -21.2952 -13.7418 0.399629 -20.6692 -13.3269 0.363291 
-19.9965 -12.6596 0.338042 -19.249 -11.8537 0.33334 -18.3337 -10.9711 0.368001 
-17.255 -10.036 0.466099 -16.1237 -9.21554 0.532966 -15.0431 -8.66931 0.455468 
-22.4299 -13.3371 0.723313 -22.5482 -12.5676 1.03305 -22.6562 -11.714 1.37864 
-22.7378 -10.8161 1.72924 -22.7569 -9.86817 2.05409 -22.7255 -8.84023 2.35439 
-22.6912 -7.79576 2.62344 -22.6098 -6.8028 2.83796 -22.3941 -5.84242 2.99471 
-22.5051 -15.1599 -0.0136135 -22.6464 -16.4371 -0.543003 -22.6626 -17.8513 -1.04858 
-22.4435 -19.3399 -1.51667 -22.0088 -20.7884 -2.0209 -21.468 -22.1151 -2.51025 
-20.8193 -23.2033 -2.94072 -20.1167 -23.8682 -3.44905 -19.5676 -24.0235 -4.09381 
-22.8947 -14.7584 0.230249 -23.5129 -15.5051 0.0339619 -24.1446 -16.1496 -0.16848 
-24.7985 -16.6249 -0.407256 -25.5177 -16.9206 -0.662528 -26.2665 -16.9792 -0.906352 
-26.9104 -16.8393 -1.17316 -27.3775 -16.665 -1.52027 -27.6857 -16.4911 -1.94233 
-15.0224 -7.82299 -2.84938 -14.7494 -7.96856 -2.64958 -14.4518 -8.1005 -2.4347 
-14.1739 -8.19329 -2.15258 -13.9619 -8.29537 -1.75294 -13.8296 -8.43661 -1.31369 
-13.7836 -8.53319 -0.927028 -13.8225 -8.52199 -0.556121 -13.925 -8.44975 -0.147559 
-16.8727 -9.10865 -2.98269 -18.26 -11.1738 -3.21745 -19.0237 -13.4388 -3.69368 
-19.1603 -15.3873 -4.24385 -19.0916 -17.1387 -4.67589 -19.0812 -18.9517 -4.92727 
-19.0613 -20.5584 -5.0589 -19.0239 -21.7883 -5.08875 -19.0837 -22.8421 -4.9771 
-13.4852 -6.94763 -3.12944 -11.7666 -6.607 -3.21802 -10.2409 -6.31297 -3.0752 
-8.74669 -5.93969 -2.7314 -7.20713 -5.65477 -2.3578 -5.82442 -5.3677 -1.99361 
-4.70216 -4.93315 -1.604 -3.78426 -4.48811 -1.17756 -3.11076 -4.09344 -0.700807 
-15.4364 -9.00938 -0.073924 -17.0216 -10.4132 -0.535637 -18.4051 -12.7325 -1.11618 
-19.1751 -15.3368 -1.72771 -19.3996 -17.5158 -2.28556 -19.3708 -19.2781 -2.81393 
-19.2428 -20.7971 -3.34216 -19.1352 -22.0239 -3.82739 -19.1411 -22.9983 -4.27323 
-12.7614 -8.09791 0.298578 -11.4222 -7.84294 0.358094 -9.9955 -7.57249 0.475792 
-8.51933 -7.40983 0.564399 -7.1422 -7.22291 0.532781 -5.91078 -6.73802 0.427171 
-4.77639 -6.05274 0.310334 -3.79908 -5.34546 0.160609 -3.11181 -4.55202 -0.0248174 
-21.3988 -3.08915 -0.677855 -21.5765 -2.9614 -0.30802 -21.7689 -2.84351 0.197048 
-21.9619 -2.81167 0.83445 -22.0979 -2.94824 1.44221 -22.1518 -3.2421 1.92473 
-22.1726 -3.62229 2.33334 -22.192 -4.04437 2.67841 -22.1673 -4.48249 2.93 
-22.2263 -4.24525 -1.12986 -23.3214 -5.29086 -1.37138 -24.443 -6.40791 -1.7169 
-25.5409 -7.91251 -2.12822 -26.5812 -9.85017 -2.50356 -27.413 -11.6862 -2.69108 
-27.8469 -13.0672 -2.67001 -27.9366 -14.2058 -2.57521 -27.9024 -15.288 -2.48212 
-20.329 -2.12387 -0.713172 -19.3432 -1.05356 -0.409912 -18.2983 -0.0473139 -0.0809638 
-17.2301 0.900818 0.247209 -16.1522 1.80584 0.553344 -15.1022 2.59739 0.850541 
-14.0859 3.09531 1.1669 -13.0671 3.25656 1.48835 -12.0817 3.24872 1.75653 
-23.0054 -5.80571 2.69455 -24.0877 -6.86535 2.2721 -25.1403 -8.0477 1.78058 
-25.9896 -9.26202 1.17827 -26.6813 -10.4894 0.542047 -27.236 -11.7597 -0.0965127 
-27.53 -13.0041 -0.756889 -27.6373 -14.163 -1.37425 -27.7476 -15.2531 -1.90047 
-21.2028 -3.76284 3.40389 -20.1887 -2.50619 3.6218 -18.9192 -1.17845 3.71352 
-17.4645 0.132473 3.74137 -16.0982 1.27518 3.71652 -14.9597 2.09176 3.52639 
-13.9323 2.56564 3.17176 -12.93 2.83665 2.77019 -11.9983 3.03456 2.36212 
-19.7393 -24.5239 -4.85729 -20.5008 -24.6675 -4.95292 -21.73 -23.9725 -4.86146 
-23.3245 -22.9315 -4.46327 -24.7977 -21.9734 -3.93461 -25.8759 -20.8877 -3.52031 
-26.7408 -19.632 -3.19302 -27.428 -18.4514 -2.87093 -27.7807 -17.3498 -2.59201 
-2.60089 -2.66431 0.0287179 -2.6601 -1.60857 0.253443 -3.0246 -0.723072 0.38593 
-3.81814 0.1078 0.457773 -4.95098 1.09657 0.672245 -6.2339 2.01871 1.0483 
-7.59124 2.64464 1.36253 -8.92653 3.01844 1.55887 -10.1261 3.18095 1.74443 
-12.7348 -1.73121 -3.09846 -12.7418 -2.40069 -3.2564 -14.0204 -2.47726 -3.15898 
-12.8581 -3.14677 -3.39329 -14.1378 -3.1794 -3.31314 -15.5512 -3.40652 -3.23258 
-13.1707 -3.91724 -3.5321 -14.4463 -3.98388 -3.41846 -15.9044 -4.25797 -3.32581 
-17.33 -4.77443 -3.26192 -13.6945 -4.72957 -3.62193 -15.0323 -4.88418 -3.46922 
-16.4849 -5.30312 -3.36266 -17.9079 -5.92598 -3.33666 -19.0889 -6.59645 -3.37646 
-14.3273 -5.60232 -3.55032 -15.7398 -5.88511 -3.43048 -17.1605 -6.47513 -3.41501 
-18.5074 -7.22696 -3.4706 -19.643 -7.92959 -3.60061 -20.5306 -8.47237 -3.73543 
-15.0082 -6.49999 -3.3557 -16.4154 -6.96689 -3.32426 -17.7383 -7.70414 -3.47559 
-18.9334 -8.55589 -3.69581 -20.0051 -9.27821 -3.90926 -20.9026 -9.79253 -4.09569 
-21.6193 -10.1376 -4.20596 -15.7475 -7.42519 -3.18688 -17.0737 -8.12113 -3.26383 
-18.2564 -8.97762 -3.53935 -19.2528 -9.86253 -3.90264 -20.1706 -10.5943 -4.20948 
-21.0511 -11.0985 -4.43419 -21.811 -11.4354 -4.56757 -22.4211 -11.6457 -4.61997 
-10.4952 -0.922679 -3.10002 -9.28218 -0.870362 -3.06709 -10.3674 -1.5728 -3.26363 
-8.00596 -0.990758 -2.9087 -9.08871 -1.60238 -3.19496 -10.4015 -2.38701 -3.33835 
-6.68997 -1.24479 -2.66463 -7.75857 -1.83521 -3.00616 -9.09047 -2.53015 -3.24862 
-10.5651 -3.28979 -3.45899 -5.43953 -1.63355 -2.3678 -6.46608 -2.19615 -2.73709 
-7.76446 -2.84552 -3.06302 -9.28318 -3.51776 -3.37683 -10.8583 -4.17222 -3.69284 
-4.41347 -2.20605 -2.00896 -5.33063 -2.67126 -2.39378 -6.57668 -3.24725 -2.76843 
-8.08449 -3.83329 -3.13413 -9.69593 -4.41188 -3.55099 -11.3146 -4.98766 -3.82676 
-3.68773 -2.85821 -1.60519 -4.48441 -3.26907 -2.00437 -5.62338 -3.75623 -2.39315 
-7.08647 -4.24554 -2.76041 -8.70185 -4.70473 -3.16418 -10.2938 -5.21639 -3.5783 
-11.9162 -5.71854 -3.70107 -3.25691 -3.48555 -1.17055 -3.98324 -3.89441 -1.60452 
-4.99294 -4.3531 -2.00237 -6.312 -4.79462 -2.37386 -7.87451 -5.13736 -2.72941 
-9.45682 -5.52958 -3.13259 -10.9894 -5.96244 -3.43569 -12.6448 -6.36222 -3.42085 
-3.6475 -4.97023 -0.553178 -4.53181 -5.83757 -0.40718 -4.51367 -5.41238 -1.07095 
-5.60313 -6.64955 -0.286005 -5.48618 -6.31657 -0.962028 -5.53616 -5.86258 -1.52694 
-6.75001 -7.23822 -0.169866 -6.55865 -6.98737 -0.867746 -6.54232 -6.58005 -1.44193 
-6.74717 -6.13947 -1.94641 -8.06614 -7.53202 -0.0664864 -7.79866 -7.42435 -0.791814 
[...]
POINT_DATA 1002
FIELD FieldData 4
_paraPhi 1 1002 double
6.2831853072 3.1415926536 6.2831853072 3.1415926536 4.7123889804 4.7123889804 1.5707963268 1.5707963268 3.6951670125 
5.7296109483 2.5880182947 0.5535743589 6.2831853072 6.2831853072 6.2831853072 6.2831853072 3.1415926536 3.1415926536 
3.1415926536 3.1415926536 3.1415926536 6.1053039672 5.898798347 5.6768734901 5.4599499503 5.2659633393 5.1032165617 
4.9713148346 4.8656852733 4.7809517865 0.17788134 0.38438696014 0.60631181711 0.82323535693 1.0172219679 1.1799687454 
1.3118704726 1.4175000338 1.5022335207 6.1892828907 6.1070320098 6.035312792 5.9728339911 5.9183214791 5.8706119594 
5.8286879411 5.7916808611 5.7588591896 0.093902416448 0.17615329733 0.2478725152 0.31035131605 0.36486382811 0.41257334776 
0.45449736604 0.4915044461 0.52432611754 3.3194739936 3.5259796137 3.7479044707 3.9648280105 4.1588146215 4.321561399 
4.4534631262 4.5590926874 4.6438261743 2.9637113136 2.7572056934 2.5352808365 2.3183572967 2.1243706857 1.9616239082 
1.829722181 1.7240926197 1.6393591329 3.23549507 3.3177459509 3.3894651688 3.4519439696 3.5064564817 3.5541660013 
3.5960900196 3.6330970997 3.6659187711 3.0476902371 2.9654393563 2.8937201384 2.8312413375 2.7767288255 2.7290193058 
2.6870952876 2.6500882075 2.617266536 6.2831853072 6.2831853072 6.2831853072 6.2831853072 3.1415926536 3.1415926536 
3.1415926536 3.1415926536 3.1415926536 6.1053039672 5.898798347 5.6768734901 5.4599499503 5.2659633393 5.1032165617 
4.9713148346 4.8656852733 4.7809517865 0.17788134 0.38438696014 0.60631181711 0.82323535693 1.0172219679 1.1799687454 
1.3118704726 1.4175000338 1.5022335207 6.1892828907 6.1070320098 6.035312792 5.9728339911 5.9183214791 5.8706119594 
5.8286879411 5.7916808611 5.7588591896 0.093902416448 0.17615329733 0.2478725152 0.31035131605 0.36486382811 0.41257334776 
0.45449736604 0.4915044461 0.52432611754 3.3194739936 3.5259796137 3.7479044707 3.9648280105 4.1588146215 4.321561399 
4.4534631262 4.5590926874 4.6438261743 2.9637113136 2.7572056934 2.5352808365 2.3183572967 2.1243706857 1.9616239082 
1.829722181 1.7240926197 1.6393591329 3.23549507 3.3177459509 3.3894651688 3.4519439696 3.5064564817 3.5541660013 
3.5960900196 3.6330970997 3.6659187711 3.0476902371 2.9654393563 2.8937201384 2.8312413375 2.7767288255 2.7290193058 
2.6870952876 2.6500882075 2.617266536 4.7123889804 4.7123889804 4.7123889804 4.7123889804 4.7123889804 4.7123889804 
4.7123889804 4.7123889804 4.7123889804 4.6087898617 4.4991390697 4.3857031936 4.2712800401 4.1588146215 4.0509635631 
3.94975894 3.8564636551 3.7716124825 4.8159880991 4.9256388911 5.0390747672 5.1534979207 5.2659633393 5.3738143976 
5.4750190208 5.5683143056 5.6531654782 4.6087898617 4.4991390697 4.3857031936 4.2712800401 4.1588146215 4.0509635631 
3.94975894 3.8564636551 3.7716124825 4.8159880991 4.9256388911 5.0390747672 5.1534979207 5.2659633393 5.3738143976 
5.4750190208 5.5683143056 5.6531654782 1.5707963268 1.5707963268 1.5707963268 1.5707963268 1.5707963268 1.5707963268 
1.5707963268 1.5707963268 1.5707963268 1.6743954455 1.7840462375 1.8974821136 2.0119052671 2.1243706857 2.232221744 
2.3334263672 2.426721652 2.5115728246 1.4671972081 1.3575464161 1.24411054 1.1296873865 1.0172219679 0.90937090954 
0.80816628637 0.71487100155 0.63001982895 1.6743954455 1.7840462375 1.8974821136 2.0119052671 2.1243706857 2.232221744 
2.3334263672 2.426721652 2.5115728246 1.4671972081 1.3575464161 1.24411054 1.1296873865 1.0172219679 0.90937090954 
0.80816628637 0.71487100155 0.63001982895 3.6007720849 3.4966939854 3.3839471039 3.2645756454 3.1415926536 3.0186096618 
2.8992382033 2.7864913217 2.6824132222 5.8240058758 5.9280839753 6.0408308569 6.1602023154 6.2831853072 0.12298299178 
0.2423544503 0.35510133185 0.45917943135 6.0560271438 5.7885595667 5.9702140275 5.5125918794 5.6029703303 5.7885595667 
5.2659633393 5.2659633393 5.2659633393 5.2659633393 5.0674903122 5.0120975802 4.9155579264 4.7123889804 4.1588146215 
4.9155579264 4.8353719722 4.7123889804 4.5092200343 4.1588146215 3.6362183941 4.8004512023 4.7123889804 4.5894059886 
4.4126803806 4.1588146215 3.8218076305 3.4545639333 4.7123889804 4.6243267584 4.5092200343 4.3572876485 4.1588146215 
3.9121860814 3.6362183941 3.368750817 6.0174235957 5.9434319871 5.8263323547 5.8809213739 5.7674481418 5.6279784266 
5.8278025282 5.718968232 5.5891129425 5.4372443565 5.7823484065 5.678536687 5.5575666702 5.4192596322 5.2659633393 
5.743164462 5.6444075337 5.5314983644 5.4046708639 5.2659633393 5.1195510325 5.7091357773 5.6152775188 5.5096229709 
5.3926039573 5.2659633393 5.1329233157 4.9978930058 5.6793730533 5.5901633916 5.4910209005 5.3824597928 5.2659633393 
5.1440684722 5.0201624502 4.8979782167 5.5683143056 5.4750190208 5.4750190208 5.3738143976 5.3738143976 5.3738143976 
5.2659633393 5.2659633393 5.2659633393 5.2659633393 5.1534979207 5.1534979207 5.1534979207 5.1534979207 5.1534979207 
5.0390747672 5.0390747672 5.0390747672 5.0390747672 5.0390747672 5.0390747672 4.9256388911 4.9256388911 4.9256388911 
4.9256388911 4.9256388911 4.9256388911 4.9256388911 4.8159880991 4.8159880991 4.8159880991 4.8159880991 4.8159880991 
4.8159880991 4.8159880991 4.8159880991 4.6087898617 4.6087898617 4.4991390697 4.6087898617 4.4991390697 4.3857031936 
4.6087898617 4.4991390697 4.3857031936 4.2712800401 4.6087898617 4.4991390697 4.3857031936 4.2712800401 4.1588146215 
4.6087898617 4.4991390697 4.3857031936 4.2712800401 4.1588146215 4.0509635631 4.6087898617 4.4991390697 4.3857031936 
4.2712800401 4.1588146215 4.0509635631 3.94975894 4.6087898617 4.4991390697 4.3857031936 4.2712800401 4.1588146215 
4.0509635631 3.94975894 3.8564636551 4.526799744 4.4046155105 4.426884955 4.2807094886 4.2918546451 4.3052269283 
4.1588146215 4.1588146215 4.1588146215 4.1588146215 4.042318168 4.0321740035 4.0201070968 4.0055183285 3.9875336042 
3.9337570603 3.9151549899 3.8932795963 3.8672112905 3.8356650183 3.7967995342 3.8346145692 3.809500442 3.7803704271 
3.7462412737 3.7058097288 3.657329819 3.5984456061 3.7454049075 3.7156421835 3.6816134988 3.6424295543 3.5969754326 
3.5438565869 3.4813459737 3.4073543651 3.5642842451 3.4524645613 3.5233842518 3.3320300872 3.403123212 3.4773852225 
3.20576226 3.2746326772 3.348015857 3.4255060145 3.0774230472 3.1415926536 3.2112816139 3.2864685043 3.3668817272 
2.95115522 3.00855263 3.0719036933 3.1415926536 3.2178377658 3.3005964304 2.8307207459 2.8800620952 2.9351694502 
2.9967168029 3.0653475414 3.1415926536 3.225752376 2.718901062 2.7598010554 2.8058000847 2.8576792927 2.91630358 
2.9825888767 3.0574329311 3.1415926536 3.5642842451 3.5233842518 3.4524645613 3.4773852225 3.403123212 3.3320300872 
3.4255060145 3.348015857 3.2746326772 3.20576226 3.3668817272 3.2864685043 3.2112816139 3.1415926536 3.0774230472 
3.3005964304 3.2178377658 3.1415926536 3.0719036933 3.00855263 2.95115522 3.225752376 3.1415926536 3.0653475414 
2.9967168029 2.9351694502 2.8800620952 2.8307207459 3.1415926536 3.0574329311 2.9825888767 2.91630358 2.8576792927 
2.8058000847 2.7598010554 2.718901062 4.526799744 4.426884955 4.4046155105 4.3052269283 4.2918546451 4.2807094886 
4.1588146215 4.1588146215 4.1588146215 4.1588146215 3.9875336042 4.0055183285 4.0201070968 4.0321740035 4.042318168 
3.7967995342 3.8356650183 3.8672112905 3.8932795963 3.9151549899 3.9337570603 3.5984456061 3.657329819 3.7058097288 
3.7462412737 3.7803704271 3.809500442 3.8346145692 3.4073543651 3.4813459737 3.5438565869 3.5969754326 3.6424295543 
3.6816134988 3.7156421835 3.7454049075 4.7123889804 4.8004512023 4.6243267584 4.9155579264 4.7123889804 4.5092200343 
5.0674903122 4.8353719722 4.5894059886 4.3572876485 5.2659633393 5.0120975802 4.7123889804 4.4126803806 4.1588146215 
5.5125918794 5.2659633393 4.9155579264 4.5092200343 4.1588146215 3.9121860814 5.7885595667 5.6029703303 5.2659633393 
4.7123889804 4.1588146215 3.8218076305 3.6362183941 6.0560271438 5.9702140275 5.7885595667 5.2659633393 4.1588146215 
3.6362183941 3.4545639333 3.368750817 0.22715816343 0.49462574053 0.3129712797 0.77059342779 0.68021497688 0.49462574053 
1.0172219679 1.0172219679 1.0172219679 1.0172219679 1.2156949949 1.271087727 1.3676273807 1.5707963268 2.1243706857 
1.3676273807 1.447813335 1.5707963268 1.7739652728 2.1243706857 2.6469669131 1.4827341049 1.5707963268 1.6937793186 
1.8705049266 2.1243706857 2.4613776767 2.8286213739 1.5707963268 1.6588585487 1.7739652728 1.9258976586 2.1243706857 
2.3709992258 2.6469669131 2.9144344902 1.7563855631 1.8785697967 1.8563003522 2.0024758186 1.9913306621 1.9779583789 
2.1243706857 2.1243706857 2.1243706857 2.1243706857 2.2408671392 2.2510113037 2.2630782103 2.2776669786 2.295651703 
2.3494282469 2.3680303173 2.3899057108 2.4159740166 2.4475202889 2.486385773 2.448570738 2.4736848652 2.5028148801 
2.5369440334 2.5773755784 2.6258554882 2.6847397011 2.5377803997 2.5675431237 2.6015718084 2.6407557529 2.6862098746 
2.7393287203 2.8018393335 2.8758309421 1.6743954455 1.6743954455 1.7840462375 1.6743954455 1.7840462375 1.8974821136 
1.6743954455 1.7840462375 1.8974821136 2.0119052671 1.6743954455 1.7840462375 1.8974821136 2.0119052671 2.1243706857 
1.6743954455 1.7840462375 1.8974821136 2.0119052671 2.1243706857 2.232221744 1.6743954455 1.7840462375 1.8974821136 
2.0119052671 2.1243706857 2.232221744 2.3334263672 1.6743954455 1.7840462375 1.8974821136 2.0119052671 2.1243706857 
2.232221744 2.3334263672 2.426721652 1.4671972081 1.3575464161 1.4671972081 1.24411054 1.3575464161 1.4671972081 
1.1296873865 1.24411054 1.3575464161 1.4671972081 1.0172219679 1.1296873865 1.24411054 1.3575464161 1.4671972081 
0.90937090954 1.0172219679 1.1296873865 1.24411054 1.3575464161 1.4671972081 0.80816628637 0.90937090954 1.0172219679 
1.1296873865 1.24411054 1.3575464161 1.4671972081 0.71487100155 0.80816628637 0.90937090954 1.0172219679 1.1296873865 
1.24411054 1.3575464161 1.4671972081 0.60381225391 0.57404952988 0.69302191562 0.54002084522 0.66790778838 0.79216440667 
0.50083690068 0.63877777351 0.77356233629 0.90072551443 0.45538277901 0.60464862014 0.75168694275 0.89058134991 1.0172219679 
0.40226393329 0.56421707518 0.72561863695 0.87851444325 1.0172219679 1.139116835 0.33975332011 0.51573716537 0.69407236469 
0.86392567495 1.0172219679 1.1502619915 1.2630228569 0.26576171152 0.45685295248 0.6552068806 0.84594095064 1.0172219679 
1.1636342747 1.2852923014 1.3852070904 0.22715816343 0.3129712797 0.49462574053 0.49462574053 0.68021497688 0.77059342779 
1.0172219679 1.0172219679 1.0172219679 1.0172219679 2.1243706857 1.5707963268 1.3676273807 1.271087727 1.2156949949 
2.6469669131 2.1243706857 1.7739652728 1.5707963268 1.447813335 1.3676273807 2.8286213739 2.4613776767 2.1243706857 
1.8705049266 1.6937793186 1.5707963268 1.4827341049 2.9144344902 2.6469669131 2.3709992258 2.1243706857 1.9258976586 
1.7739652728 1.6588585487 1.5707963268 1.7563855631 1.8563003522 1.8785697967 1.9779583789 1.9913306621 2.0024758186 
2.1243706857 2.1243706857 2.1243706857 2.1243706857 2.295651703 2.2776669786 2.2630782103 2.2510113037 2.2408671392 
2.486385773 2.4475202889 2.4159740166 2.3899057108 2.3680303173 2.3494282469 2.6847397011 2.6258554882 2.5773755784 
2.5369440334 2.5028148801 2.4736848652 2.448570738 2.8758309421 2.8018393335 2.7393287203 2.6862098746 2.6407557529 
2.6015718084 2.5675431237 2.5377803997 5.8604937156 5.901393709 5.9723133995 5.9473927383 6.0216547488 6.0927478736 
5.9992719463 6.0767621038 6.1501452836 6.2190157008 6.0578962336 6.1383094565 6.2134963469 0 0.064169606361 
6.1241815303 6.206940195 6.2831853072 0.069688960264 0.13304002361 0.19043743361 6.1990255847 0 0.07624511221 
0.14487585072 0.20642320337 0.26153055843 0.3108719077 0 0.084159722458 0.15900377685 0.22528907359 0.28391336087 
0.3357925689 0.38179159818 0.42269159155 5.8604937156 5.9723133995 5.901393709 6.0927478736 6.0216547488 5.9473927383 
6.2190157008 6.1501452836 6.0767621038 5.9992719463 0.064169606361 0 6.2134963469 6.1383094565 6.0578962336 
0.19043743361 0.13304002361 0.069688960264 6.2831853072 6.206940195 6.1241815303 0.3108719077 0.26153055843 0.20642320337 
0.14487585072 0.07624511221 6.2831853072 6.1990255847 0.42269159155 0.38179159818 0.3357925689 0.28391336087 0.22528907359 
0.15900377685 0.084159722458 0 5.6793730533 5.7091357773 5.5901633916 5.743164462 5.6152775188 5.4910209005 
5.7823484065 5.6444075337 5.5096229709 5.3824597928 5.8278025282 5.678536687 5.5314983644 5.3926039573 5.2659633393 
5.8809213739 5.718968232 5.5575666702 5.4046708639 5.2659633393 5.1440684722 5.9434319871 5.7674481418 5.5891129425 
5.4192596322 5.2659633393 5.1329233157 5.0201624502 6.0174235957 5.8263323547 5.6279784266 5.4372443565 5.2659633393 
5.1195510325 4.9978930058 4.8979782167 1.3852070904 1.2852923014 1.2630228569 1.1636342747 1.1502619915 1.139116835 
1.0172219679 1.0172219679 1.0172219679 1.0172219679 0.84594095064 0.86392567495 0.87851444325 0.89058134991 0.90072551443 
0.6552068806 0.69407236469 0.72561863695 0.75168694275 0.77356233629 0.79216440667 0.45685295248 0.51573716537 0.56421707518 
0.60464862014 0.63877777351 0.66790778838 0.69302191562 0.26576171152 0.33975332011 0.40226393329 0.45538277901 0.50083690068 
0.54002084522 0.57404952988 0.60381225391 
_paraPhiHalf 1 1002 double
0 3.1415926536 0 3.1415926536 1.5707963268 1.5707963268 1.5707963268 1.5707963268 2.5880182947 
0.5535743589 2.5880182947 0.5535743589 0 0 0 0 3.1415926536 3.1415926536 
3.1415926536 3.1415926536 3.1415926536 0.17788134 0.38438696014 0.60631181711 0.82323535693 1.0172219679 1.1799687454 
1.3118704726 1.4175000338 1.5022335207 0.17788134 0.38438696014 0.60631181711 0.82323535693 1.0172219679 1.1799687454 
1.3118704726 1.4175000338 1.5022335207 0.093902416448 0.17615329733 0.2478725152 0.31035131605 0.36486382811 0.41257334776 
0.45449736604 0.4915044461 0.52432611754 0.093902416448 0.17615329733 0.2478725152 0.31035131605 0.36486382811 0.41257334776 
0.45449736604 0.4915044461 0.52432611754 2.9637113136 2.7572056934 2.5352808365 2.3183572967 2.1243706857 1.9616239082 
1.829722181 1.7240926197 1.6393591329 2.9637113136 2.7572056934 2.5352808365 2.3183572967 2.1243706857 1.9616239082 
1.829722181 1.7240926197 1.6393591329 3.0476902371 2.9654393563 2.8937201384 2.8312413375 2.7767288255 2.7290193058 
2.6870952876 2.6500882075 2.617266536 3.0476902371 2.9654393563 2.8937201384 2.8312413375 2.7767288255 2.7290193058 
2.6870952876 2.6500882075 2.617266536 0 0 0 0 3.1415926536 3.1415926536 
3.1415926536 3.1415926536 3.1415926536 0.17788134 0.38438696014 0.60631181711 0.82323535693 1.0172219679 1.1799687454 
1.3118704726 1.4175000338 1.5022335207 0.17788134 0.38438696014 0.60631181711 0.82323535693 1.0172219679 1.1799687454 
1.3118704726 1.4175000338 1.5022335207 0.093902416448 0.17615329733 0.2478725152 0.31035131605 0.36486382811 0.41257334776 
0.45449736604 0.4915044461 0.52432611754 0.093902416448 0.17615329733 0.2478725152 0.31035131605 0.36486382811 0.41257334776 
0.45449736604 0.4915044461 0.52432611754 2.9637113136 2.7572056934 2.5352808365 2.3183572967 2.1243706857 1.9616239082 
1.829722181 1.7240926197 1.6393591329 2.9637113136 2.7572056934 2.5352808365 2.3183572967 2.1243706857 1.9616239082 
1.829722181 1.7240926197 1.6393591329 3.0476902371 2.9654393563 2.8937201384 2.8312413375 2.7767288255 2.7290193058 
2.6870952876 2.6500882075 2.617266536 3.0476902371 2.9654393563 2.8937201384 2.8312413375 2.7767288255 2.7290193058 
2.6870952876 2.6500882075 2.617266536 1.5707963268 1.5707963268 1.5707963268 1.5707963268 1.5707963268 1.5707963268 
1.5707963268 1.5707963268 1.5707963268 1.6743954455 1.7840462375 1.8974821136 2.0119052671 2.1243706857 2.232221744 
2.3334263672 2.426721652 2.5115728246 1.4671972081 1.3575464161 1.24411054 1.1296873865 1.0172219679 0.90937090954 
0.80816628637 0.71487100155 0.63001982895 1.6743954455 1.7840462375 1.8974821136 2.0119052671 2.1243706857 2.232221744 
2.3334263672 2.426721652 2.5115728246 1.4671972081 1.3575464161 1.24411054 1.1296873865 1.0172219679 0.90937090954 
0.80816628637 0.71487100155 0.63001982895 1.5707963268 1.5707963268 1.5707963268 1.5707963268 1.5707963268 1.5707963268 
1.5707963268 1.5707963268 1.5707963268 1.6743954455 1.7840462375 1.8974821136 2.0119052671 2.1243706857 2.232221744 
2.3334263672 2.426721652 2.5115728246 1.4671972081 1.3575464161 1.24411054 1.1296873865 1.0172219679 0.90937090954 
0.80816628637 0.71487100155 0.63001982895 1.6743954455 1.7840462375 1.8974821136 2.0119052671 2.1243706857 2.232221744 
2.3334263672 2.426721652 2.5115728246 1.4671972081 1.3575464161 1.24411054 1.1296873865 1.0172219679 0.90937090954 
0.80816628637 0.71487100155 0.63001982895 2.6824132222 2.7864913217 2.8992382033 3.0186096618 3.1415926536 3.0186096618 
2.8992382033 2.7864913217 2.6824132222 0.45917943135 0.35510133185 0.2423544503 0.12298299178 0 0.12298299178 
0.2423544503 0.35510133185 0.45917943135 0.22715816343 0.49462574053 0.3129712797 0.77059342779 0.68021497688 0.49462574053 
1.0172219679 1.0172219679 1.0172219679 1.0172219679 1.2156949949 1.271087727 1.3676273807 1.5707963268 2.1243706857 
1.3676273807 1.447813335 1.5707963268 1.7739652728 2.1243706857 2.6469669131 1.4827341049 1.5707963268 1.6937793186 
1.8705049266 2.1243706857 2.4613776767 2.8286213739 1.5707963268 1.6588585487 1.7739652728 1.9258976586 2.1243706857 
2.3709992258 2.6469669131 2.9144344902 0.26576171152 0.33975332011 0.45685295248 0.40226393329 0.51573716537 0.6552068806 
0.45538277901 0.56421707518 0.69407236469 0.84594095064 0.50083690068 0.60464862014 0.72561863695 0.86392567495 1.0172219679 
0.54002084522 0.63877777351 0.75168694275 0.87851444325 1.0172219679 1.1636342747 0.57404952988 0.66790778838 0.77356233629 
0.89058134991 1.0172219679 1.1502619915 1.2852923014 0.60381225391 0.69302191562 0.79216440667 0.90072551443 1.0172219679 
1.139116835 1.2630228569 1.3852070904 0.71487100155 0.80816628637 0.80816628637 0.90937090954 0.90937090954 0.90937090954 
1.0172219679 1.0172219679 1.0172219679 1.0172219679 1.1296873865 1.1296873865 1.1296873865 1.1296873865 1.1296873865 
1.24411054 1.24411054 1.24411054 1.24411054 1.24411054 1.24411054 1.3575464161 1.3575464161 1.3575464161 
1.3575464161 1.3575464161 1.3575464161 1.3575464161 1.4671972081 1.4671972081 1.4671972081 1.4671972081 1.4671972081 
1.4671972081 1.4671972081 1.4671972081 1.6743954455 1.6743954455 1.7840462375 1.6743954455 1.7840462375 1.8974821136 
1.6743954455 1.7840462375 1.8974821136 2.0119052671 1.6743954455 1.7840462375 1.8974821136 2.0119052671 2.1243706857 
1.6743954455 1.7840462375 1.8974821136 2.0119052671 2.1243706857 2.232221744 1.6743954455 1.7840462375 1.8974821136 
2.0119052671 2.1243706857 2.232221744 2.3334263672 1.6743954455 1.7840462375 1.8974821136 2.0119052671 2.1243706857 
2.232221744 2.3334263672 2.426721652 1.7563855631 1.8785697967 1.8563003522 2.0024758186 1.9913306621 1.9779583789 
2.1243706857 2.1243706857 2.1243706857 2.1243706857 2.2408671392 2.2510113037 2.2630782103 2.2776669786 2.295651703 
2.3494282469 2.3680303173 2.3899057108 2.4159740166 2.4475202889 2.486385773 2.448570738 2.4736848652 2.5028148801 
2.5369440334 2.5773755784 2.6258554882 2.6847397011 2.5377803997 2.5675431237 2.6015718084 2.6407557529 2.6862098746 
2.7393287203 2.8018393335 2.8758309421 2.718901062 2.8307207459 2.7598010554 2.95115522 2.8800620952 2.8058000847 
3.0774230472 3.00855263 2.9351694502 2.8576792927 3.0774230472 3.1415926536 3.0719036933 2.9967168029 2.91630358 
2.95115522 3.00855263 3.0719036933 3.1415926536 3.0653475414 2.9825888767 2.8307207459 2.8800620952 2.9351694502 
2.9967168029 3.0653475414 3.1415926536 3.0574329311 2.718901062 2.7598010554 2.8058000847 2.8576792927 2.91630358 
2.9825888767 3.0574329311 3.1415926536 2.718901062 2.7598010554 2.8307207459 2.8058000847 2.8800620952 2.95115522 
2.8576792927 2.9351694502 3.00855263 3.0774230472 2.91630358 2.9967168029 3.0719036933 3.1415926536 3.0774230472 
2.9825888767 3.0653475414 3.1415926536 3.0719036933 3.00855263 2.95115522 3.0574329311 3.1415926536 3.0653475414 