# vtk DataFile Version 5.1
vtk output
ASCII
DATASET POLYDATA
POINTS 1002 float
-11.7466 -0.37271 -2.6802 -23.7261 -13.337 -5.23208 -10.9873 -3.36749 3.59587 
-22.4089 -14.1954 0.123041 -14.6582 -7.47361 -3.52087 -14.25 -8.71053 0.0178387 
-21.17 -3.43231 -0.984879 -21.6607 -4.94399 3.13965 -20.6964 -25.0063 -4.32392 
-2.54433 -2.88242 0.213802 -28.401 -17.2274 -2.48292 -11.1312 3.47066 2.1882 
-12.7057 -0.979286 -2.80059 -13.853 -1.69192 -2.95402 -15.1879 -2.55829 -3.16627 
-16.6913 -3.70706 -3.33292 -18.3183 -5.22935 -3.42772 -19.9202 -7.01839 -3.65978 
-21.2874 -8.81256 -4.10227 -22.3371 -10.4497 -4.56954 -23.1309 -11.9484 -4.9446 
-11.5561 -0.80388 -2.94779 -11.4111 -1.28644 -3.22071 -11.3582 -1.87446 -3.43547 
-11.434 -2.68391 -3.59359 -11.6228 -3.63031 -3.76923 -11.9276 -4.46153 -3.92696 
-12.4121 -5.20187 -3.93816 -13.091 -6.00804 -3.81368 -13.8761 -6.80101 -3.66049 
-12.5626 -0.340154 -2.51662 -13.5235 -0.378743 -2.38442 -14.5711 -0.49357 -2.23972 
-15.6183 -0.668567 -2.02752 -16.6711 -0.912953 -1.82296 -17.7398 -1.27888 -1.68808 
-18.7316 -1.79326 -1.53167 -19.6064 -2.38656 -1.31497 -20.4152 -2.94898 -1.11784 
-10.7047 -0.0946317 -2.68283 -9.5391 0.100478 -2.59489 -8.21833 0.183156 -2.42489 
-6.8322 0.130782 -2.21524 -5.52611 -0.095052 -1.9272 -4.37845 -0.491786 -1.55528 
-3.44109 -0.995228 -1.16402 -2.7989 -1.57048 -0.733735 -2.51128 -2.21502 -0.248762 
-11.3431 0.231257 -2.42439 -10.9777 0.841799 -2.11414 -10.6859 1.43005 -1.74012 
-10.4882 1.98705 -1.29526 -10.374 2.51805 -0.798461 -10.3515 2.9982 -0.282557 
-10.4597 3.3449 0.280152 -10.6749 3.51154 0.925285 -10.913 3.53951 1.59283 
-23.244 -13.276 -5.28712 -22.6876 -13.1257 -5.32662 -22.0608 -12.8805 -5.32385 
-21.3219 -12.5092 -5.18691 -20.4622 -11.9433 -4.86705 -19.537 -11.1227 -4.43835 
-18.5082 -10.0694 -4.01911 -17.2964 -8.94662 -3.71214 -15.9644 -8.02082 -3.56221 
-23.8153 -12.4757 -4.97762 -23.8129 -11.4516 -4.65605 -23.7076 -10.2493 -4.2952 
-23.4878 -9.0328 -3.86231 -23.1782 -7.96823 -3.3084 -22.8302 -6.9343 -2.75628 
-22.4463 -5.83278 -2.32701 -22.0138 -4.84401 -1.9227 -21.573 -4.07545 -1.45445 
-23.8818 -14.7375 -5.49761 -23.8622 -16.2765 -5.69829 -23.6962 -17.8535 -5.829 
-23.4721 -19.4341 -5.91072 -23.1994 -21.0514 -5.94761 -22.8098 -22.5541 -5.92886 
-22.2816 -23.6979 -5.81217 -21.662 -24.4594 -5.4995 -21.0791 -24.9039 -4.96099 
-24.2993 -14.1592 -5.31823 -24.8409 -14.9275 -5.33456 -25.3694 -15.6512 -5.26639 
-25.9085 -16.3591 -5.09583 -26.4131 -16.9514 -4.79366 -26.8692 -17.3173 -4.41155 
-27.3615 -17.4956 -4.03406 -27.8797 -17.5449 -3.61566 -28.2626 -17.4566 -3.08111 
-12.0134 -3.97752 3.5871 -13.209 -4.65401 3.50783 -14.5485 -5.4628 3.35055 
-15.9469 -6.4389 3.10582 -17.3707 -7.5522 2.75364 -18.8018 -8.80622 2.24612 
-20.0829 -10.1807 1.61112 -21.0753 -11.5765 1.00269 -21.8212 -12.9257 0.517567 
-10.9308 -3.87749 3.37733 -10.972 -4.40041 3.07373 -11.0929 -4.98027 2.75402 
-11.2721 -5.62523 2.4382 -11.5787 -6.24129 2.06296 -12.03 -6.80169 1.64485 
-12.5195 -7.36909 1.24727 -13.0267 -7.90658 0.851363 -13.6114 -8.34567 0.433799 
-11.7284 -3.23204 3.7657 -12.5127 -3.14024 3.95711 -13.2617 -3.09976 4.21249 
-14.16 -3.0719 4.38654 -15.4289 -3.10508 4.29265 -16.8875 -3.33192 4.02093 
-18.2801 -3.74318 3.79019 -19.5898 -4.19586 3.62774 -20.7575 -4.59964 3.42752 
-9.95917 -3.09851 3.41879 -8.88793 -2.8553 3.14796 -7.74122 -2.68506 2.87175 
-6.51816 -2.63906 2.68967 -5.34549 -2.69221 2.5357 -4.36865 -2.7391 2.2719 
-3.58898 -2.7536 1.87727 -2.97804 -2.79626 1.3817 -2.60951 -2.85895 0.806533 
-10.4491 -2.63281 3.66368 -9.90717 -1.79228 3.71228 -9.44626 -0.885458 3.76497 
-9.18435 0.0417989 3.7691 -9.12959 0.933616 3.6703 -9.21547 1.74274 3.50735 
-9.48048 2.44397 3.30969 -9.9758 2.9913 3.03087 -10.5848 3.33112 2.64376 
-21.9541 -13.9399 0.0169712 -21.4154 -13.6066 -0.0320978 -20.7608 -13.1918 -0.0301216 
-20.0353 -12.6111 -0.0270468 -19.2417 -11.8596 0.00666501 -18.3124 -11.0717 0.10821 
-17.2843 -10.3206 0.198534 -16.2509 -9.6282 0.203938 -15.2345 -9.07696 0.134269 
-22.534 -13.583 0.467298 -22.6972 -12.8248 0.78487 -22.834 -11.9567 1.08518 
-22.8489 -11.0461 1.44178 -22.7867 -10.1081 1.87079 -22.7446 -9.13844 2.26713 
-22.6618 -8.13104 2.55948 -22.4342 -7.06614 2.79054 -22.0765 -5.97621 2.99283 
-22.643 -15.3552 -0.349718 -22.7937 -16.6751 -0.834519 -22.8115 -18.1892 -1.20881 
-22.6908 -19.8399 -1.46744 -22.4583 -21.4499 -1.76637 -22.1324 -22.8995 -2.13637 
-21.7033 -24.112 -2.51595 -21.22 -24.906 -3.00117 -20.844 -25.1684 -3.65141 
-23.0223 -15.0772 -0.0363444 -23.658 -15.9127 -0.21631 -24.2996 -16.6467 -0.39164 
-25.0205 -17.2528 -0.538369 -25.8642 -17.6644 -0.72585 -26.6658 -17.8324 -0.986969 
-27.2939 -17.8289 -1.26536 -27.8124 -17.7339 -1.58968 -28.2173 -17.539 -2.01381 
-14.3282 -7.63856 -3.39758 -13.9907 -7.81918 -3.1867 -13.7352 -8.04975 -2.88208 
-13.6063 -8.31642 -2.54671 -13.5669 -8.5483 -2.20064 -13.5889 -8.69758 -1.76434 
-13.6844 -8.76802 -1.24374 -13.8497 -8.77627 -0.75245 -14.0495 -8.74827 -0.338628 
-16.2687 -8.62961 -3.45466 -17.8293 -10.612 -3.62837 -18.9142 -13.1781 -4.11716 
-19.3257 -15.5207 -4.67869 -19.4614 -17.4015 -4.95895 -19.7998 -19.3473 -4.95727 
-20.2222 -21.3964 -4.90328 -20.4274 -23.0781 -4.83524 -20.5003 -24.2465 -4.65041 
-12.901 -6.95752 -3.59911 -11.1716 -6.64197 -3.56773 -9.545 -6.17248 -3.30665 
-8.05434 -5.61828 -2.8798 -6.73179 -5.20006 -2.39541 -5.55469 -4.80574 -1.87926 
-4.50826 -4.36 -1.34857 -3.63005 -3.94196 -0.824884 -2.96225 -3.47703 -0.302166 
-15.5424 -9.37474 -0.361246 -16.8983 -10.473 -0.885272 -18.2144 -12.24 -1.53779 
-19.271 -14.6787 -2.14915 -19.8104 -17.3061 -2.56816 -19.9796 -19.5504 -2.88991 
-20.1317 -21.3917 -3.24015 -20.2796 -23.0183 -3.59185 -20.4018 -24.29 -3.94175 
-12.8341 -8.26805 0.110081 -11.3576 -7.86587 0.181019 -9.9056 -7.42057 0.27579 
-8.46367 -6.97494 0.386826 -6.9941 -6.57626 0.463829 -5.60348 -6.16034 0.476059 
-4.46886 -5.63657 0.43197 -3.62212 -4.90989 0.369359 -2.98746 -3.94756 0.305128 
-21.3819 -3.3063 -0.642979 -21.5786 -3.16153 -0.26034 -21.7543 -3.06924 0.259243 
-21.9207 -3.09872 0.910133 -22.0159 -3.27026 1.4988 -21.9772 -3.54162 1.93061 
-21.8963 -3.84042 2.31286 -21.8633 -4.15865 2.68078 -21.8129 -4.53302 2.96385 
-22.1655 -4.30523 -1.17114 -23.2043 -5.28853 -1.38071 -24.2515 -6.34153 -1.61251 
-25.2713 -7.48431 -1.89166 -26.1422 -9.0197 -2.22553 -26.8189 -11.0916 -2.55619 
-27.4342 -13.2298 -2.75946 -28.0076 -14.949 -2.76607 -28.3644 -16.2325 -2.63996 
-20.318 -2.46832 -0.616219 -19.4253 -1.36664 -0.274137 -18.4669 -0.251806 0.0646128 
-17.4289 0.736272 0.415376 -16.4015 1.6097 0.733995 -15.3857 2.37278 1.03992 
-14.2853 2.92433 1.38076 -13.1678 3.2428 1.70168 -12.128 3.40642 1.96158 
-22.6762 -5.89684 2.68222 -23.7335 -6.89932 2.17005 -24.8932 -7.96828 1.71516 
-25.9923 -9.15825 1.27199 -26.7782 -10.5371 0.674501 -27.2908 -12.0888 -0.0781274 
-27.734 -13.6589 -0.801445 -28.132 -15.0819 -1.41056 -28.3773 -16.2772 -1.96172 
-20.6786 -3.69726 3.40809 -19.5505 -2.33309 3.60785 -18.3547 -0.946534 3.80736 
-17.1514 0.278478 3.97418 -15.9758 1.21686 3.95246 -14.915 1.9416 3.73524 
-13.971 2.55062 3.42827 -13.0131 3.01594 3.04743 -12.0275 3.30624 2.61272 
-21.3869 -25.426 -4.30763 -22.5452 -25.3458 -4.22361 -23.8658 -24.7844 -4.06873 
-24.9187 -23.9521 -3.8785 -25.6594 -22.9589 -3.66223 -26.3284 -21.7549 -3.41141 
-27.0168 -20.4814 -3.16493 -27.6552 -19.3362 -2.93802 -28.1461 -18.2819 -2.70763 
-2.26614 -1.77006 0.454319 -2.31777 -0.687774 0.68338 -2.80776 0.220147 0.886271 
-3.65642 1.07 1.03268 -4.71664 1.95898 1.13152 -5.94829 2.74636 1.30699 
-7.3068 3.27679 1.61024 -8.66908 3.51728 1.89552 -9.95214 3.54162 2.06857 
-12.5946 -1.46127 -3.07482 -12.5592 -2.00523 -3.34311 -13.8506 -2.2465 -3.2227 
-12.648 -2.68774 -3.54328 -13.9495 -2.89412 -3.45347 -15.3526 -3.22828 -3.39307 
-12.8722 -3.55904 -3.7014 -14.2016 -3.69804 -3.60713 -15.6477 -4.03996 -3.54495 
-17.088 -4.56752 -3.50151 -13.2176 -4.45078 -3.83665 -14.6306 -4.61862 -3.70585 
-16.1132 -5.02825 -3.64236 -17.6122 -5.632 -3.65245 -18.9084 -6.34789 -3.66009 
-13.7181 -5.26669 -3.86111 -15.2187 -5.55679 -3.72941 -16.7453 -6.13309 -3.70275 
-18.2217 -6.89578 -3.82526 -19.524 -7.67306 -3.9739 -20.5195 -8.33318 -4.05361 
-14.3995 -6.15139 -3.76205 -15.9089 -6.59663 -3.689 -17.4303 -7.35468 -3.74178 
-18.8225 -8.27861 -3.99144 -20.0402 -9.125 -4.30421 -21.0036 -9.74937 -4.49471 
-21.7313 -10.167 -4.55519 -15.1898 -7.11153 -3.6438 -16.6267 -7.77661 -3.67435 
-18.0294 -8.71528 -3.84424 -19.2733 -9.72501 -4.18466 -20.3608 -10.5836 -4.59225 
-21.2743 -11.1745 -4.87716 -21.9977 -11.5398 -4.97331 -22.6002 -11.7808 -4.97261 
-10.4363 -0.560163 -2.95336 -9.16554 -0.433693 -2.82605 -10.2106 -1.1026 -3.20412 
-7.7579 -0.458835 -2.61331 -8.85205 -1.0867 -3.05198 -10.103 -1.8316 -3.39071 
-6.34614 -0.634768 -2.3558 -7.40913 -1.22919 -2.81553 -8.72146 -1.96835 -3.23302 
-10.1751 -2.81128 -3.54926 -5.08088 -0.98396 -2.00367 -6.04025 -1.513 -2.48627 
-7.33869 -2.19682 -2.96072 -8.87705 -3.00851 -3.38228 -10.4188 -3.7873 -3.73887 
-4.07833 -1.50304 -1.5994 -4.92417 -1.99911 -2.07226 -6.11628 -2.57097 -2.57519 
-7.65018 -3.23829 -3.06323 -9.27008 -3.92861 -3.52603 -10.8172 -4.58468 -3.86819 
-3.40274 -2.12576 -1.19681 -4.19135 -2.64408 -1.66666 -5.2351 -3.16876 -2.17097 
-6.60721 -3.6838 -2.67601 -8.18835 -4.1931 -3.16292 -9.78674 -4.78961 -3.60298 
-11.3859 -5.40535 -3.84488 -3.04575 -2.79866 -0.758715 -3.80044 -3.30957 -1.26113 
-4.74928 -3.81325 -1.77744 -5.91305 -4.29353 -2.29722 -7.28318 -4.69226 -2.78453 
-8.80694 -5.17496 -3.24266 -10.4174 -5.7667 -3.60539 -12.1061 -6.2704 -3.73513 
-3.47984 -4.47373 -0.239239 -4.20019 -5.33492 -0.204446 -4.24754 -4.8362 -0.79737 
-5.18673 -6.04858 -0.189598 -5.08384 -5.65329 -0.802888 -5.25992 -5.20002 -1.3561 
-6.47385 -6.62952 -0.174772 -6.19218 -6.41382 -0.83535 -6.23338 -5.98856 -1.39073 
-6.43835 -5.5902 -1.92106 -7.92624 -7.06765 -0.15388 -7.52469 -7.04453 -0.825047 
-7.42967 -6.74877 -1.43626 -7.5536 -6.33912 -1.98087 -7.72224 -5.99867 -2.48445 
[...]
POINT_DATA 1002
FIELD FieldData 4
_paraPhi 1 1002 double
6.2831853072 3.1415926536 6.2831853072 3.1415926536 4.7123889804 4.7123889804 1.5707963268 1.5707963268 3.6951670125 
5.7296109483 2.5880182947 0.5535743589 6.2831853072 6.2831853072 6.2831853072 6.2831853072 3.1415926536 3.1415926536 
3.1415926536 3.1415926536 3.1415926536 6.1053039672 5.898798347 5.6768734901 5.4599499503 5.2659633393 5.1032165617 
4.9713148346 4.8656852733 4.7809517865 0.17788134 0.38438696014 0.60631181711 0.82323535693 1.0172219679 1.1799687454 
1.3118704726 1.4175000338 1.5022335207 6.1892828907 6.1070320098 6.035312792 5.9728339911 5.9183214791 5.8706119594 
5.8286879411 5.7916808611 5.7588591896 0.093902416448 0.17615329733 0.2478725152 0.31035131605 0.36486382811 0.41257334776 
0.45449736604 0.4915044461 0.52432611754 3.3194739936 3.5259796137 3.7479044707 3.9648280105 4.1588146215 4.321561399 
4.4534631262 4.5590926874 4.6438261743 2.9637113136 2.7572056934 2.5352808365 2.3183572967 2.1243706857 1.9616239082 
1.829722181 1.7240926197 1.6393591329 3.23549507 3.3177459509 3.3894651688 3.4519439696 3.5064564817 3.5541660013 
3.5960900196 3.6330970997 3.6659187711 3.0476902371 2.9654393563 2.8937201384 2.8312413375 2.7767288255 2.7290193058 
2.6870952876 2.6500882075 2.617266536 6.2831853072 6.2831853072 6.2831853072 6.2831853072 3.1415926536 3.1415926536 
3.1415926536 3.1415926536 3.1415926536 6.1053039672 5.898798347 5.6768734901 5.4599499503 5.2659633393 5.1032165617 
4.9713148346 4.8656852733 4.7809517865 0.17788134 0.38438696014 0.60631181711 0.82323535693 1.0172219679 1.1799687454 
1.3118704726 1.4175000338 1.5022335207 6.1892828907 6.1070320098 6.035312792 5.9728339911 5.9183214791 5.8706119594 
5.8286879411 5.7916808611 5.7588591896 0.093902416448 0.17615329733 0.2478725152 0.31035131605 0.36486382811 0.41257334776 
0.45449736604 0.4915044461 0.52432611754 3.3194739936 3.5259796137 3.7479044707 3.9648280105 4.1588146215 4.321561399 
4.4534631262 4.5590926874 4.6438261743 2.9637113136 2.7572056934 2.5352808365 2.3183572967 2.1243706857 1.9616239082 
1.829722181 1.7240926197 1.6393591329 3.23549507 3.3177459509 3.3894651688 3.4519439696 3.5064564817 3.5541660013 
3.5960900196 3.6330970997 3.6659187711 3.0476902371 2.9654393563 2.8937201384 2.8312413375 2.7767288255 2.7290193058 
2.6870952876 2.6500882075 2.617266536 4.7123889804 4.7123889804 4.7123889804 4.7123889804 4.7123889804 4.7123889804 
4.7123889804 4.7123889804 4.7123889804 4.6087898617 4.4991390697 4.3857031936 4.2712800401 4.1588146215 4.0509635631 
3.94975894 3.8564636551 3.7716124825 4.8159880991 4.9256388911 5.0390747672 5.1534979207 5.2659633393 5.3738143976 
5.4750190208 5.5683143056 5.6531654782 4.6087898617 4.4991390697 4.3857031936 4.2712800401 4.1588146215 4.0509635631 
3.94975894 3.8564636551 3.7716124825 4.8159880991 4.9256388911 5.0390747672 5.1534979207 5.2659633393 5.3738143976 
5.4750190208 5.5683143056 5.6531654782 1.5707963268 1.5707963268 1.5707963268 1.5707963268 1.5707963268 1.5707963268 
1.5707963268 1.5707963268 1.5707963268 1.6743954455 1.7840462375 1.8974821136 2.0119052671 2.1243706857 2.232221744 
2.3334263672 2.426721652 2.5115728246 1.4671972081 1.3575464161 1.24411054 1.1296873865 1.0172219679 0.90937090954 
0.80816628637 0.71487100155 0.63001982895 1.6743954455 1.7840462375 1.8974821136 2.0119052671 2.1243706857 2.232221744 
2.3334263672 2.426721652 2.5115728246 1.4671972081 1.3575464161 1.24411054 1.1296873865 1.0172219679 0.90937090954 
0.80816628637 0.71487100155 0.63001982895 3.6007720849 3.4966939854 3.3839471039 3.2645756454 3.1415926536 3.0186096618 
2.8992382033 2.7864913217 2.6824132222 5.8240058758 5.9280839753 6.0408308569 6.1602023154 6.2831853072 0.12298299178 
0.2423544503 0.35510133185 0.45917943135 6.0560271438 5.7885595667 5.9702140275 5.5125918794 5.6029703303 5.7885595667 
5.2659633393 5.2659633393 5.2659633393 5.2659633393 5.0674903122 5.0120975802 4.9155579264 4.7123889804 4.1588146215 
4.9155579264 4.8353719722 4.7123889804 4.5092200343 4.1588146215 3.6362183941 4.8004512023 4.7123889804 4.5894059886 
4.4126803806 4.1588146215 3.8218076305 3.4545639333 4.7123889804 4.6243267584 4.5092200343 4.3572876485 4.1588146215 
3.9121860814 3.6362183941 3.368750817 6.0174235957 5.9434319871 5.8263323547 5.8809213739 5.7674481418 5.6279784266 
5.8278025282 5.718968232 5.5891129425 5.4372443565 5.7823484065 5.678536687 5.5575666702 5.4192596322 5.2659633393 
5.743164462 5.6444075337 5.5314983644 5.4046708639 5.2659633393 5.1195510325 5.7091357773 5.6152775188 5.5096229709 
5.3926039573 5.2659633393 5.1329233157 4.9978930058 5.6793730533 5.5901633916 5.4910209005 5.3824597928 5.2659633393 
5.1440684722 5.0201624502 4.8979782167 5.5683143056 5.4750190208 5.4750190208 5.3738143976 5.3738143976 5.3738143976 
5.2659633393 5.2659633393 5.2659633393 5.2659633393 5.1534979207 5.1534979207 5.1534979207 5.1534979207 5.1534979207 
5.0390747672 5.0390747672 5.0390747672 5.0390747672 5.0390747672 5.0390747672 4.9256388911 4.9256388911 4.9256388911 
4.9256388911 4.9256388911 4.9256388911 4.9256388911 4.8159880991 4.8159880991 4.8159880991 4.8159880991 4.8159880991 
4.8159880991 4.8159880991 4.8159880991 4.6087898617 4.6087898617 4.4991390697 4.6087898617 4.4991390697 4.3857031936 
4.6087898617 4.4991390697 4.3857031936 4.2712800401 4.6087898617 4.4991390697 4.3857031936 4.2712800401 4.1588146215 
4.6087898617 4.4991390697 4.3857031936 4.2712800401 4.1588146215 4.0509635631 4.6087898617 4.4991390697 4.3857031936 
4.2712800401 4.1588146215 4.0509635631 3.94975894 4.6087898617 4.4991390697 4.3857031936 4.2712800401 4.1588146215 
4.0509635631 3.94975894 3.8564636551 4.526799744 4.4046155105 4.426884955 4.2807094886 4.2918546451 4.3052269283 
4.1588146215 4.1588146215 4.1588146215 4.1588146215 4.042318168 4.0321740035 4.0201070968 4.0055183285 3.9875336042 
3.9337570603 3.9151549899 3.8932795963 3.8672112905 3.8356650183 3.7967995342 3.8346145692 3.809500442 3.7803704271 
3.7462412737 3.7058097288 3.657329819 3.5984456061 3.7454049075 3.7156421835 3.6816134988 3.6424295543 3.5969754326 
3.5438565869 3.4813459737 3.4073543651 3.5642842451 3.4524645613 3.5233842518 3.3320300872 3.403123212 3.4773852225 
3.20576226 3.2746326772 3.348015857 3.4255060145 3.0774230472 3.1415926536 3.2112816139 3.2864685043 3.3668817272 
2.95115522 3.00855263 3.0719036933 3.1415926536 3.2178377658 3.3005964304 2.8307207459 2.8800620952 2.9351694502 
2.9967168029 3.0653475414 3.1415926536 3.225752376 2.718901062 2.7598010554 2.8058000847 2.8576792927 2.91630358 
2.9825888767 3.0574329311 3.1415926536 3.5642842451 3.5233842518 3.4524645613 3.4773852225 3.403123212 3.3320300872 
3.4255060145 3.348015857 3.2746326772 3.20576226 3.3668817272 3.2864685043 3.2112816139 3.1415926536 3.0774230472 
3.3005964304 3.2178377658 3.1415926536 3.0719036933 3.00855263 2.95115522 3.225752376 3.1415926536 3.0653475414 
2.9967168029 2.9351694502 2.8800620952 2.8307207459 3.1415926536 3.0574329311 2.9825888767 2.91630358 2.8576792927 
2.8058000847 2.7598010554 2.718901062 4.526799744 4.426884955 4.4046155105 4.3052269283 4.2918546451 4.2807094886 
4.1588146215 4.1588146215 4.1588146215 4.1588146215 3.9875336042 4.0055183285 4.0201070968 4.0321740035 4.042318168 
3.7967995342 3.8356650183 3.8672112905 3.8932795963 3.9151549899 3.9337570603 3.5984456061 3.657329819 3.7058097288 
3.7462412737 3.7803704271 3.809500442 3.8346145692 3.4073543651 3.4813459737 3.5438565869 3.5969754326 3.6424295543 
3.6816134988 3.7156421835 3.7454049075 4.7123889804 4.8004512023 4.6243267584 4.9155579264 4.7123889804 4.5092200343 
5.0674903122 4.8353719722 4.5894059886 4.3572876485 5.2659633393 5.0120975802 4.7123889804 4.4126803806 4.1588146215 
5.5125918794 5.2659633393 4.9155579264 4.5092200343 4.1588146215 3.9121860814 5.7885595667 5.6029703303 5.2659633393 
4.7123889804 4.1588146215 3.8218076305 3.6362183941 6.0560271438 5.9702140275 5.7885595667 5.2659633393 4.1588146215 
3.6362183941 3.4545639333 3.368750817 0.22715816343 0.49462574053 0.3129712797 0.77059342779 0.68021497688 0.49462574053 
1.0172219679 1.0172219679 1.0172219679 1.0172219679 1.2156949949 1.271087727 1.3676273807 1.5707963268 2.1243706857 
1.3676273807 1.447813335 1.5707963268 1.7739652728 2.1243706857 2.6469669131 1.4827341049 1.5707963268 1.6937793186 
1.8705049266 2.1243706857 2.4613776767 2.8286213739 1.5707963268 1.6588585487 1.7739652728 1.9258976586 2.1243706857 
2.3709992258 2.6469669131 2.9144344902 1.7563855631 1.8785697967 1.8563003522 2.0024758186 1.9913306621 1.9779583789 
2.1243706857 2.1243706857 2.1243706857 2.1243706857 2.2408671392 2.2510113037 2.2630782103 2.2776669786 2.295651703 
2.3494282469 2.3680303173 2.3899057108 2.4159740166 2.4475202889 2.486385773 2.448570738 2.4736848652 2.5028148801 
2.5369440334 2.5773755784 2.6258554882 2.6847397011 2.5377803997 2.5675431237 2.6015718084 2.6407557529 2.6862098746 
2.7393287203 2.8018393335 2.8758309421 1.6743954455 1.6743954455 1.7840462375 1.6743954455 1.7840462375 1.8974821136 
1.6743954455 1.7840462375 1.8974821136 2.0119052671 1.6743954455 1.7840462375 1.8974821136 2.0119052671 2.1243706857 
1.6743954455 1.7840462375 1.8974821136 2.0119052671 2.1243706857 2.232221744 1.6743954455 1.7840462375 1.8974821136 
2.0119052671 2.1243706857 2.232221744 2.3334263672 1.6743954455 1.7840462375 1.8974821136 2.0119052671 2.1243706857 
2.232221744 2.3334263672 2.426721652 1.4671972081 1.3575464161 1.4671972081 1.24411054 1.3575464161 1.4671972081 
1.1296873865 1.24411054 1.3575464161 1.4671972081 1.0172219679 1.1296873865 1.24411054 1.3575464161 1.4671972081 
0.90937090954 1.0172219679 1.1296873865 1.24411054 1.3575464161 1.4671972081 0.80816628637 0.90937090954 1.0172219679 
1.1296873865 1.24411054 1.3575464161 1.4671972081 0.71487100155 0.80816628637 0.90937090954 1.0172219679 1.1296873865 
1.24411054 1.3575464161 1.4671972081 0.60381225391 0.57404952988 0.69302191562 0.54002084522 0.66790778838 0.79216440667 
0.50083690068 0.63877777351 0.77356233629 0.90072551443 0.45538277901 0.60464862014 0.75168694275 0.89058134991 1.0172219679 
0.40226393329 0.56421707518 0.72561863695 0.87851444325 1.0172219679 1.139116835 0.33975332011 0.51573716537 0.69407236469 
0.86392567495 1.0172219679 1.1502619915 1.2630228569 0.26576171152 0.45685295248 0.6552068806 0.84594095064 1.0172219679 
1.1636342747 1.2852923014 1.3852070904 0.22715816343 0.3129712797 0.49462574053 0.49462574053 0.68021497688 0.77059342779 
1.0172219679 1.0172219679 1.0172219679 1.0172219679 2.1243706857 1.5707963268 1.3676273807 1.271087727 1.2156949949 
2.6469669131 2.1243706857 1.7739652728 1.5707963268 1.447813335 1.3676273807 2.8286213739 2.4613776767 2.1243706857 
1.8705049266 1.6937793186 1.5707963268 1.4827341049 2.9144344902 2.6469669131 2.3709992258 2.1243706857 1.9258976586 
1.7739652728 1.6588585487 1.5707963268 1.7563855631 1.8563003522 1.8785697967 1.9779583789 1.9913306621 2.0024758186 
2.1243706857 2.1243706857 2.1243706857 2.1243706857 2.295651703 2.2776669786 2.2630782103 2.2510113037 2.2408671392 
2.486385773 2.4475202889 2.4159740166 2.3899057108 2.3680303173 2.3494282469 2.6847397011 2.6258554882 2.5773755784 
2.5369440334 2.5028148801 2.4736848652 2.448570738 2.8758309421 2.8018393335 2.7393287203 2.6862098746 2.6407557529 
2.6015718084 2.5675431237 2.5377803997 5.8604937156 5.901393709 5.9723133995 5.9473927383 6.0216547488 6.0927478736 
5.9992719463 6.0767621038 6.1501452836 6.2190157008 6.0578962336 6.1383094565 6.2134963469 0 0.064169606361 
6.1241815303 6.206940195 6.2831853072 0.069688960264 0.13304002361 0.19043743361 6.1990255847 0 0.07624511221 
0.14487585072 0.20642320337 0.26153055843 0.3108719077 0 0.084159722458 0.15900377685 0.22528907359 0.28391336087 
0.3357925689 0.38179159818 0.42269159155 5.8604937156 5.9723133995 5.901393709 6.0927478736 6.0216547488 5.9473927383 
6.2190157008 6.1501452836 6.0767621038 5.9992719463 0.064169606361 0 6.2134963469 6.1383094565 6.0578962336 
0.19043743361 0.13304002361 0.069688960264 6.2831853072 6.206940195 6.1241815303 0.3108719077 0.26153055843 0.20642320337 
0.14487585072 0.07624511221 6.2831853072 6.1990255847 0.42269159155 0.38179159818 0.3357925689 0.28391336087 0.22528907359 
0.15900377685 0.084159722458 0 5.6793730533 5.7091357773 5.5901633916 5.743164462 5.6152775188 5.4910209005 
5.7823484065 5.6444075337 5.5096229709 5.3824597928 5.8278025282 5.678536687 5.5314983644 5.3926039573 5.2659633393 
5.8809213739 5.718968232 5.5575666702 5.4046708639 5.2659633393 5.1440684722 5.9434319871 5.7674481418 5.5891129425 
5.4192596322 5.2659633393 5.1329233157 5.0201624502 6.0174235957 5.8263323547 5.6279784266 5.4372443565 5.2659633393 
5.1195510325 4.9978930058 4.8979782167 1.3852070904 1.2852923014 1.2630228569 1.1636342747 1.1502619915 1.139116835 
1.0172219679 1.0172219679 1.0172219679 1.0172219679 0.84594095064 0.86392567495 0.87851444325 0.89058134991 0.90072551443 
0.6552068806 0.69407236469 0.72561863695 0.75168694275 0.77356233629 0.79216440667 0.45685295248 0.51573716537 0.56421707518 
0.60464862014 0.63877777351 0.66790778838 0.69302191562 0.26576171152 0.33975332011 0.40226393329 0.45538277901 0.50083690068 
0.54002084522 0.57404952988 0.60381225391 
_paraPhiHalf 1 1002 double
0 3.1415926536 0 3.1415926536 1.5707963268 1.5707963268 1.5707963268 1.5707963268 2.5880182947 
0.5535743589 2.5880182947 0.5535743589 0 0 0 0 3.1415926536 3.1415926536 
3.1415926536 3.1415926536 3.1415926536 0.17788134 0.38438696014 0.60631181711 0.82323535693 1.0172219679 1.1799687454 
1.3118704726 1.4175000338 1.5022335207 0.17788134 0.38438696014 0.60631181711 0.82323535693 1.0172219679 1.1799687454 
1.3118704726 1.4175000338 1.5022335207 0.093902416448 0.17615329733 0.2478725152 0.31035131605 0.36486382811 0.41257334776 
0.45449736604 0.4915044461 0.52432611754 0.093902416448 0.17615329733 0.2478725152 0.31035131605 0.36486382811 0.41257334776 
0.45449736604 0.4915044461 0.52432611754 2.9637113136 2.7572056934 2.5352808365 2.3183572967 2.1243706857 1.9616239082 
1.829722181 1.7240926197 1.6393591329 2.9637113136 2.7572056934 2.5352808365 2.3183572967 2.1243706857 1.9616239082 
1.829722181 1.7240926197 1.6393591329 3.0476902371 2.9654393563 2.8937201384 2.8312413375 2.7767288255 2.7290193058 
2.6870952876 2.6500882075 2.617266536 3.0476902371 2.9654393563 2.8937201384 2.8312413375 2.7767288255 2.7290193058 
2.6870952876 2.6500882075 2.617266536 0 0 0 0 3.1415926536 3.1415926536 
3.1415926536 3.1415926536 3.1415926536 0.17788134 0.38438696014 0.60631181711 0.82323535693 1.0172219679 1.1799687454 
1.3118704726 1.4175000338 1.5022335207 0.17788134 0.38438696014 0.60631181711 0.82323535693 1.0172219679 1.1799687454 
1.3118704726 1.4175000338 1.5022335207 0.093902416448 0.17615329733 0.2478725152 0.31035131605 0.36486382811 0.41257334776 
0.45449736604 0.4915044461 0.52432611754 0.093902416448 0.17615329733 0.2478725152 0.31035131605 0.36486382811 0.41257334776 
0.45449736604 0.4915044461 0.52432611754 2.9637113136 2.7572056934 2.5352808365 2.3183572967 2.1243706857 1.9616239082 
1.829722181 1.7240926197 1.6393591329 2.9637113136 2.7572056934 2.5352808365 2.3183572967 2.1243706857 1.9616239082 
1.829722181 1.7240926197 1.6393591329 3.0476902371 2.9654393563 2.8937201384 2.8312413375 2.7767288255 2.7290193058 
2.6870952876 2.6500882075 2.617266536 3.0476902371 2.9654393563 2.8937201384 2.8312413375 2.7767288255 2.7290193058 
2.6870952876 2.6500882075 2.617266536 1.5707963268 1.5707963268 1.5707963268 1.5707963268 1.5707963268 1.5707963268 
1.5707963268 1.5707963268 1.5707963268 1.6743954455 1.7840462375 1.8974821136 2.0119052671 2.1243706857 2.232221744 
2.3334263672 2.426721652 2.5115728246 1.4671972081 1.3575464161 1.24411054 1.1296873865 1.0172219679 0.90937090954 
0.80816628637 0.71487100155 0.63001982895 1.6743954455 1.7840462375 1.8974821136 2.0119052671 2.1243706857 2.232221744 
2.3334263672 2.426721652 2.5115728246 1.4671972081 1.3575464161 1.24411054 1.1296873865 1.0172219679 0.90937090954 
0.80816628637 0.71487100155 0.63001982895 1.5707963268 1.5707963268 1.5707963268 1.5707963268 1.5707963268 1.5707963268 
1.5707963268 1.5707963268 1.5707963268 1.6743954455 1.7840462375 1.8974821136 2.0119052671 2.1243706857 2.232221744 
2.3334263672 2.426721652 2.5115728246 1.4671972081 1.3575464161 1.24411054 1.1296873865 1.0172219679 0.90937090954 
0.80816628637 0.71487100155 0.63001982895 1.6743954455 1.7840462375 1.8974821136 2.0119052671 2.1243706857 2.232221744 
2.3334263672 2.426721652 2.5115728246 1.4671972081 1.3575464161 1.24411054 1.1296873865 1.0172219679 0.90937090954 
0.80816628637 0.71487100155 0.63001982895 2.6824132222 2.7864913217 2.8992382033 3.0186096618 3.1415926536 3.0186096618 
2.8992382033 2.7864913217 2.6824132222 0.45917943135 0.35510133185 0.2423544503 0.12298299178 0 0.12298299178 
0.2423544503 0.35510133185 0.45917943135 0.22715816343 0.49462574053 0.3129712797 0.77059342779 0.68021497688 0.49462574053 
1.0172219679 1.0172219679 1.0172219679 1.0172219679 1.2156949949 1.271087727 1.3676273807 1.5707963268 2.1243706857 
1.3676273807 1.447813335 1.5707963268 1.7739652728 2.1243706857 2.6469669131 1.4827341049 1.5707963268 1.6937793186 
1.8705049266 2.1243706857 2.4613776767 2.8286213739 1.5707963268 1.6588585487 1.7739652728 1.9258976586 2.1243706857 
2.3709992258 2.6469669131 2.9144344902 0.26576171152 0.33975332011 0.45685295248 0.40226393329 0.51573716537 0.6552068806 
0.45538277901 0.56421707518 0.69407236469 0.84594095064 0.50083690068 0.60464862014 0.72561863695 0.86392567495 1.0172219679 
0.54002084522 0.63877777351 0.75168694275 0.87851444325 1.0172219679 1.1636342747 0.57404952988 0.66790778838 0.77356233629 
0.89058134991 1.0172219679 1.1502619915 1.2852923014 0.60381225391 0.69302191562 0.79216440667 0.90072551443 1.0172219679 
1.139116835 1.2630228569 1.3852070904 0.71487100155 0.80816628637 0.80816628637 0.90937090954 0.90937090954 0.90937090954 
1.0172219679 1.0172219679 1.0172219679 1.0172219679 1.1296873865 1.1296873865 1.1296873865 1.1296873865 1.1296873865 
1.24411054 1.24411054 1.24411054 1.24411054 1.24411054 1.24411054 1.3575464161 1.3575464161 1.3575464161 
1.3575464161 1.3575464161 1.3575464161 1.3575464161 1.4671972081 1.4671972081 1.4671972081 1.4671972081 1.4671972081 
1.4671972081 1.4671972081 1.4671972081 1.6743954455 1.6743954455 1.7840462375 1.6743954455 1.7840462375 1.8974821136 
1.6743954455 1.7840462375 1.8974821136 2.0119052671 1.6743954455 1.7840462375 1.8974821136 2.0119052671 2.1243706857 
1.6743954455 1.7840462375 1.8974821136 2.0119052671 2.1243706857 2.232221744 1.6743954455 1.7840462375 1.8974821136 
2.0119052671 2.1243706857 2.232221744 2.3334263672 1.6743954455 1.7840462375 1.8974821136 2.0119052671 2.1243706857 
2.232221744 2.3334263672 2.426721652 1.7563855631 1.8785697967 1.8563003522 2.0024758186 1.9913306621 1.9779583789 
2.1243706857 2.1243706857 2.1243706857 2.1243706857 2.2408671392 2.2510113037 2.2630782103 2.2776669786 2.295651703 
2.3494282469 2.3680303173 2.3899057108 2.4159740166 2.4475202889 2.486385773 2.448570738 2.4736848652 2.5028148801 
2.5369440334 2.5773755784 2.6258554882 2.6847397011 2.5377803997 2.5675431237 2.6015718084 2.6407557529 2.6862098746 
2.7393287203 2.8018393335 2.8758309421 2.718901062 2.8307207459 2.7598010554 2.95115522 2.8800620952 2.8058000847 
3.0774230472 3.00855263 2.9351694502 2.8576792927 3.0774230472 3.1415926536 3.0719036933 2.9967168029 2.91630358 
2.95115522 3.00855263 3.0719036933 3.1415926536 3.0653475414 2.9825888767 2.8307207459 2.8800620952 2.9351694502 
2.9967168029 3.0653475414 3.1415926536 3.0574329311 2.718901062 2.7598010554 2.8058000847 2.8576792927 2.91630358 
2.9825888767 3.0574329311 3.1415926536 2.718901062 2.7598010554 2.8307207459 2.8058000847 2.8800620952 2.95115522 
2.8576792927 2.9351694502 3.00855263 3.0774230472 2.91630358 2.9967168029 3.0719036933 3.1415926536 3.0774230472 
2.9825888767 3.0653475414 3.1415926536 3.0719036933 3.00855263 2.95115522 3.0574329311 3.1415926536 3.0653475414 