# vtk DataFile Version 5.1
vtk output
ASCII
DATASET POLYDATA
POINTS 1002 float
-10.3738 -1.28903 -1.29883 -16.1555 -18.0899 -2.72847 -7.65226 -3.45794 4.78306 
-13.7293 -18.2519 2.50334 -10.4865 -9.41418 -1.61021 -8.6418 -9.83768 1.58735 
-17.4673 -7.9851 1.63638 -17.0582 -9.95817 5.84427 -7.44474 -26.3534 -3.15563 
-0.790551 0.240782 0.000372543 -18.1598 -23.2149 0.278087 -10.7856 2.6816 3.55005 
-11.0135 -2.25786 -1.28998 -11.7927 -3.3731 -1.3009 -12.6764 -4.71557 -1.29854 
-13.5362 -6.48264 -1.19223 -14.3303 -8.67664 -1.0635 -15.0839 -11.0045 -1.14665 
-15.7004 -13.1948 -1.49795 -16.0725 -15.1114 -1.97023 -16.2091 -16.7173 -2.40835 
-10.044 -1.58423 -1.56556 -9.73545 -2.01128 -1.81801 -9.45613 -2.61332 -2.03642 
-9.24968 -3.35559 -2.24084 -9.1973 -4.21365 -2.42213 -9.27413 -5.19058 -2.47998 
-9.39716 -6.23868 -2.36895 -9.62352 -7.31206 -2.15849 -10.0186 -8.38436 -1.89881 
-11.1027 -1.62428 -1.00293 -11.8973 -2.04707 -0.666248 -12.7616 -2.55659 -0.345193 
-13.6601 -3.14339 -0.0634304 -14.4982 -3.84593 0.252114 -15.2209 -4.68145 0.626012 
-15.8777 -5.54158 0.954104 -16.5003 -6.36048 1.19592 -17.0389 -7.1801 1.41552 
-9.51263 -0.569558 -1.45157 -8.4882 0.096487 -1.55946 -7.33688 0.708507 -1.64271 
-6.14966 1.2551 -1.70649 -4.89441 1.61011 -1.68515 -3.56225 1.69459 -1.54879 
-2.40935 1.58897 -1.316 -1.62643 1.31886 -0.960084 -1.12013 0.84606 -0.489394 
-10.2355 -0.569166 -1.11961 -10.126 0.166648 -0.88694 -10.0552 0.882705 -0.576242 
-10.0447 1.50674 -0.158218 -10.0783 2.00075 0.373204 -10.163 2.42346 0.954221 
-10.3518 2.77053 1.55399 -10.5904 2.92711 2.22587 -10.7456 2.8693 2.934 
-15.7208 -17.8904 -2.79017 -15.243 -17.6055 -2.81169 -14.7121 -17.2067 -2.82603 
-14.1565 -16.6482 -2.73282 -13.6474 -15.8864 -2.45697 -13.1763 -14.8553 -2.12426 
-12.6673 -13.5034 -1.82821 -12.0765 -11.9654 -1.5858 -11.3565 -10.5329 -1.49746 
-16.6368 -17.3789 -2.41265 -17.0532 -16.4949 -1.98104 -17.3682 -15.454 -1.50943 
-17.6055 -14.3242 -1.06624 -17.7804 -13.1435 -0.600797 -17.8231 -11.9539 -0.0803857 
-17.7351 -10.8309 0.420102 -17.6304 -9.7987 0.858661 -17.5535 -8.8458 1.25852 
-15.6523 -19.356 -3.02058 -14.9338 -20.7812 -3.2933 -14.0958 -22.2251 -3.6246 
-13.2287 -23.423 -3.96882 -12.2627 -24.3965 -4.1328 -11.0931 -25.3718 -4.13749 
-9.80011 -26.2017 -4.16775 -8.62552 -26.574 -4.12134 -7.80992 -26.541 -3.77164 
-16.3057 -19.0391 -2.77483 -16.409 -20.0725 -2.74594 -16.5172 -21.0885 -2.69226 
-16.7249 -21.9448 -2.58776 -16.9946 -22.612 -2.3514 -17.2344 -23.1408 -1.99786 
-17.5229 -23.5118 -1.55262 -17.8729 -23.657 -0.97747 -18.1103 -23.5446 -0.324488 
-8.39811 -4.50821 4.89367 -9.18573 -5.78894 5.05958 -10.0176 -7.21785 5.19921 
-10.9253 -8.68816 5.12582 -11.8149 -10.2741 4.84785 -12.5603 -12.03 4.47152 
-13.1445 -13.7623 3.95529 -13.5394 -15.3416 3.35893 -13.7133 -16.8331 2.86498 
-7.43776 -3.91174 4.57425 -7.28682 -4.46114 4.32375 -7.20726 -5.08146 4.02948 
-7.16804 -5.74078 3.71145 -7.18491 -6.44013 3.37564 -7.31089 -7.1697 3.02446 
-7.53366 -7.90386 2.67202 -7.82518 -8.61577 2.31729 -8.19742 -9.2627 1.95224 
-8.33136 -3.66992 5.0728 -8.9765 -3.93332 5.43305 -9.6815 -4.25058 5.75617 
-10.7184 -4.73309 5.87819 -12.0535 -5.4634 5.84637 -13.3082 -6.37449 5.83906 
-14.376 -7.37952 5.88129 -15.3984 -8.39488 5.91995 -16.3359 -9.28289 5.92331 
-6.77112 -2.78806 4.53518 -5.9106 -2.16459 4.18257 -5.09382 -1.58784 3.70387 
-4.19609 -1.06196 3.17075 -3.25284 -0.609644 2.65357 -2.4277 -0.261575 2.16826 
-1.68285 -0.0206125 1.69217 -1.04455 0.140224 1.17337 -0.731714 0.229455 0.5934 
-7.39126 -2.59028 4.82573 -7.23567 -1.63667 4.80823 -7.21009 -0.614536 4.75523 
-7.32558 0.368009 4.72196 -7.62116 1.23543 4.65571 -8.08718 1.96809 4.50054 
-8.69051 2.47976 4.32327 -9.42077 2.71838 4.14422 -10.173 2.7587 3.89243 
-13.3798 -17.8682 2.39556 -13.0106 -17.3934 2.32609 -12.632 -16.7578 2.28068 
-12.2529 -15.8853 2.23291 -11.848 -14.79 2.19402 -11.3701 -13.5756 2.17521 
-10.7837 -12.3887 2.13985 -10.091 -11.3494 2.03551 -9.35138 -10.5018 1.84243 
-14.1055 -17.727 2.85035 -14.5069 -17.1287 3.24517 -14.9148 -16.4503 3.66385 
-15.317 -15.6963 4.08749 -15.7038 -14.8593 4.51553 -16.0931 -13.9836 4.93051 
-16.5033 -13.1174 5.30595 -16.8535 -12.1769 5.60953 -17.0363 -11.0944 5.79209 
-13.4505 -19.4625 2.06727 -13.0782 -20.7499 1.52173 -12.549 -22.0559 0.90681 
-11.7805 -23.3922 0.356199 -10.787 -24.7259 -0.103431 -9.69606 -25.8671 -0.540262 
-8.65915 -26.5691 -1.01731 -7.85201 -26.7607 -1.64792 -7.43985 -26.6198 -2.43059 
-13.9357 -19.3144 2.37047 -14.2056 -20.3181 2.18789 -14.5621 -21.1884 1.96538 
-15.0005 -21.9594 1.79933 -15.558 -22.612 1.68771 -16.2189 -23.0319 1.49436 
-16.8358 -23.2445 1.20244 -17.338 -23.3558 0.907342 -17.778 -23.3586 0.615045 
-10.1544 -9.42193 -1.53594 -9.73626 -9.3776 -1.3995 -9.30431 -9.33246 -1.17885 
-8.96458 -9.36526 -0.918826 -8.70407 -9.50153 -0.610568 -8.48888 -9.67938 -0.198641 
-8.38847 -9.80278 0.273537 -8.42267 -9.83774 0.735669 -8.52127 -9.83219 1.17668 
-11.4163 -11.2958 -1.28643 -11.8949 -13.7046 -1.35775 -11.6756 -16.1977 -1.96272 
-10.9529 -18.2649 -2.70813 -10.1969 -19.9445 -3.13345 -9.61403 -21.6024 -3.30752 
-9.0452 -23.2222 -3.44714 -8.37812 -24.553 -3.51269 -7.76653 -25.5657 -3.41575 
-9.12751 -8.04556 -2.0287 -7.68358 -6.95723 -2.35198 -6.43153 -5.83581 -2.37625 
-5.30979 -4.63674 -2.18577 -4.10121 -3.60674 -1.96369 -2.91166 -2.7395 -1.73506 
-2.00607 -1.92221 -1.42149 -1.39582 -1.17199 -0.988783 -0.986173 -0.45655 -0.488881 
-9.59001 -10.9217 1.35953 -10.4955 -12.6158 1.04601 -10.9656 -15.1218 0.610423 
-10.7314 -17.9243 0.032963 -9.99834 -20.213 -0.596328 -9.22345 -21.9303 -1.15514 
-8.59734 -23.4398 -1.64411 -8.0389 -24.7127 -2.13361 -7.58412 -25.646 -2.6508 
-7.64876 -8.91438 1.49992 -6.63008 -7.91511 1.34689 -5.5667 -6.83135 1.16646 
-4.4457 -5.81049 1.00829 -3.33975 -4.89402 0.866614 -2.31649 -3.94412 0.688103 
-1.44654 -2.92971 0.488067 -0.878555 -1.89977 0.320241 -0.690408 -0.832231 0.169254 
-17.6202 -7.96137 2.033 -17.7443 -7.92934 2.50567 -17.8904 -7.88681 3.04173 
-18.0353 -7.87552 3.62397 -18.0607 -7.98154 4.19697 -17.9418 -8.25811 4.69068 
-17.7717 -8.66815 5.10795 -17.5935 -9.13066 5.46202 -17.3683 -9.57716 5.71328 
-17.9599 -9.29186 1.58603 -18.5793 -10.5854 1.44982 -19.2132 -11.8968 1.25085 
-19.5827 -13.5768 0.991169 -19.6331 -15.8524 0.624734 -19.5992 -18.2557 0.256859 
-19.512 -20.118 0.094006 -19.2029 -21.3867 0.134124 -18.699 -22.376 0.222692 
-17.1083 -6.64898 1.86711 -16.6774 -5.25527 2.0909 -16.1496 -3.85095 2.3347 
-15.5605 -2.46114 2.59927 -14.9519 -1.1689 2.81868 -14.2505 -0.0696541 2.98781 
-13.3825 0.834345 3.17557 -12.4596 1.58197 3.3586 -11.6057 2.19399 3.47833 
-17.6444 -11.2154 5.62216 -18.1926 -12.5221 5.23521 -18.7111 -13.985 4.77437 
-19.0815 -15.5729 4.27237 -19.227 -17.1819 3.63002 -19.2197 -18.7262 2.85736 
-19.0734 -20.0619 2.10926 -18.7864 -21.1893 1.44397 -18.4626 -22.248 0.834251 
-16.5913 -8.36053 5.88037 -16.0258 -6.56214 5.88428 -15.4068 -4.67989 5.92074 
-14.7572 -2.86837 5.93015 -14.0985 -1.30997 5.82203 -13.4437 -0.104143 5.56765 
-12.756 0.805781 5.14704 -12.0316 1.53114 4.60908 -11.3537 2.14799 4.06345 
-7.69701 -27.1287 -3.19951 -8.64023 -27.6238 -3.06346 -10.1943 -27.6756 -2.64454 
-11.9201 -27.5153 -2.07036 -13.371 -27.2589 -1.59109 -14.5704 -26.6495 -1.19725 
-15.7522 -25.802 -0.770055 -16.8182 -25.0137 -0.364336 -17.5948 -24.1859 -0.0286137 
-0.982905 1.31468 0.182659 -1.43836 2.2587 0.38978 -2.19298 2.90156 0.649383 
-3.24868 3.36858 0.953521 -4.55626 3.77478 1.31059 -6.02018 3.98708 1.79667 
-7.4886 3.94529 2.37918 -8.80102 3.69011 2.88841 -9.88699 3.23925 3.25782 
-10.7628 -2.64606 -1.56479 -10.5303 -3.18343 -1.80554 -11.6368 -3.898 -1.55464 
-10.3233 -3.88192 -1.99751 -11.4932 -4.59728 -1.74974 -12.6009 -5.47898 -1.46732 
-10.2281 -4.71865 -2.14974 -11.3966 -5.44645 -1.88083 -12.5668 -6.43512 -1.58899 
-13.5167 -7.56171 -1.27988 -10.3208 -5.69599 -2.23105 -11.4444 -6.45749 -1.93808 
-12.6229 -7.55241 -1.66411 -13.5851 -8.82817 -1.39553 -14.3413 -10.0193 -1.19372 
-10.5089 -6.80133 -2.18225 -11.622 -7.68067 -1.91797 -12.748 -8.89759 -1.67227 
-13.7048 -10.2761 -1.52334 -14.407 -11.5187 -1.42616 -15.0492 -12.48 -1.41234 
-10.7222 -8.01094 -2.00512 -11.7954 -9.08739 -1.84055 -12.8143 -10.464 -1.68267 
-13.6997 -11.8906 -1.66132 -14.3855 -13.1042 -1.74384 -14.9647 -14.002 -1.80346 
-15.5359 -14.6455 -1.8804 -11.0159 -9.28678 -1.75346 -11.9419 -10.5667 -1.71819 
-12.7722 -12.0667 -1.7477 -13.4901 -13.4841 -1.873 -14.1069 -14.6131 -2.11143 
-14.6824 -15.4271 -2.28923 -15.2357 -16.001 -2.3484 -15.7478 -16.4177 -2.39322 
-9.09838 -0.874167 -1.73629 -7.99212 -0.247075 -1.87377 -8.71407 -1.37503 -1.99475 
-6.76301 0.290384 -1.9541 -7.52266 -0.84637 -2.12082 -8.37584 -2.0711 -2.22041 
-5.46983 0.719531 -1.93979 -6.19459 -0.404971 -2.12967 -7.10859 -1.60702 -2.32753 
-8.15255 -2.8715 -2.4579 -4.1082 0.916939 -1.83504 -4.82373 -0.0942296 -2.03135 
-5.73313 -1.23842 -2.28345 -6.86469 -2.44945 -2.56234 -8.0921 -3.80583 -2.63584 
-2.83887 0.834936 -1.67542 -3.51271 -0.0503747 -1.91626 -4.43787 -1.09152 -2.15491 
-5.56802 -2.21348 -2.4877 -6.83064 -3.50302 -2.69515 -8.12632 -4.9032 -2.62112 
-1.93016 0.548235 -1.40916 -2.46576 -0.276433 -1.75555 -3.33477 -1.22113 -2.01112 
-4.47978 -2.2532 -2.29971 -5.70264 -3.40525 -2.5709 -6.94201 -4.73747 -2.63835 
-8.26103 -6.03778 -2.47184 -1.36686 0.0989597 -0.987768 -1.80015 -0.675705 -1.43865 
-2.51476 -1.52457 -1.77855 -3.5919 -2.46201 -2.04478 -4.83393 -3.4716 -2.3007 
-6.00924 -4.66666 -2.49666 -7.21758 -5.93237 -2.5154 -8.60404 -7.09597 -2.28457 
-1.01182 -1.5491 -0.349191 -1.35938 -2.65428 -0.219436 -1.59655 -2.28215 -0.884734 
-2.0497 -3.7526 -0.0518301 -2.10239 -3.43227 -0.785324 -2.39043 -3.04662 -1.33745 
-2.95778 -4.76993 0.180356 -2.85875 -4.52825 -0.626292 -3.03021 -4.17035 -1.24228 
-3.46615 -3.82836 -1.62941 -4.0051 -5.70731 0.429652 -3.78147 -5.53678 -0.35732 
-3.85766 -5.277 -1.07014 -4.20953 -4.97998 -1.49698 -4.74174 -4.75347 -1.82697 
[...]
POINT_DATA 1002
FIELD FieldData 4
_paraPhi 1 1002 double
6.2831853072 3.1415926536 6.2831853072 3.1415926536 4.7123889804 4.7123889804 1.5707963268 1.5707963268 3.6951670125 
5.7296109483 2.5880182947 0.5535743589 6.2831853072 6.2831853072 6.2831853072 6.2831853072 3.1415926536 3.1415926536 
3.1415926536 3.1415926536 3.1415926536 6.1053039672 5.898798347 5.6768734901 5.4599499503 5.2659633393 5.1032165617 
4.9713148346 4.8656852733 4.7809517865 0.17788134 0.38438696014 0.60631181711 0.82323535693 1.0172219679 1.1799687454 
1.3118704726 1.4175000338 1.5022335207 6.1892828907 6.1070320098 6.035312792 5.9728339911 5.9183214791 5.8706119594 
5.8286879411 5.7916808611 5.7588591896 0.093902416448 0.17615329733 0.2478725152 0.31035131605 0.36486382811 0.41257334776 
0.45449736604 0.4915044461 0.52432611754 3.3194739936 3.5259796137 3.7479044707 3.9648280105 4.1588146215 4.321561399 
4.4534631262 4.5590926874 4.6438261743 2.9637113136 2.7572056934 2.5352808365 2.3183572967 2.1243706857 1.9616239082 
1.829722181 1.7240926197 1.6393591329 3.23549507 3.3177459509 3.3894651688 3.4519439696 3.5064564817 3.5541660013 
3.5960900196 3.6330970997 3.6659187711 3.0476902371 2.9654393563 2.8937201384 2.8312413375 2.7767288255 2.7290193058 
2.6870952876 2.6500882075 2.617266536 6.2831853072 6.2831853072 6.2831853072 6.2831853072 3.1415926536 3.1415926536 
3.1415926536 3.1415926536 3.1415926536 6.1053039672 5.898798347 5.6768734901 5.4599499503 5.2659633393 5.1032165617 
4.9713148346 4.8656852733 4.7809517865 0.17788134 0.38438696014 0.60631181711 0.82323535693 1.0172219679 1.1799687454 
1.3118704726 1.4175000338 1.5022335207 6.1892828907 6.1070320098 6.035312792 5.9728339911 5.9183214791 5.8706119594 
5.8286879411 5.7916808611 5.7588591896 0.093902416448 0.17615329733 0.2478725152 0.31035131605 0.36486382811 0.41257334776 
0.45449736604 0.4915044461 0.52432611754 3.3194739936 3.5259796137 3.7479044707 3.9648280105 4.1588146215 4.321561399 
4.4534631262 4.5590926874 4.6438261743 2.9637113136 2.7572056934 2.5352808365 2.3183572967 2.1243706857 1.9616239082 
1.829722181 1.7240926197 1.6393591329 3.23549507 3.3177459509 3.3894651688 3.4519439696 3.5064564817 3.5541660013 
3.5960900196 3.6330970997 3.6659187711 3.0476902371 2.9654393563 2.8937201384 2.8312413375 2.7767288255 2.7290193058 
2.6870952876 2.6500882075 2.617266536 4.7123889804 4.7123889804 4.7123889804 4.7123889804 4.7123889804 4.7123889804 
4.7123889804 4.7123889804 4.7123889804 4.6087898617 4.4991390697 4.3857031936 4.2712800401 4.1588146215 4.0509635631 
3.94975894 3.8564636551 3.7716124825 4.8159880991 4.9256388911 5.0390747672 5.1534979207 5.2659633393 5.3738143976 
5.4750190208 5.5683143056 5.6531654782 4.6087898617 4.4991390697 4.3857031936 4.2712800401 4.1588146215 4.0509635631 
3.94975894 3.8564636551 3.7716124825 4.8159880991 4.9256388911 5.0390747672 5.1534979207 5.2659633393 5.3738143976 
5.4750190208 5.5683143056 5.6531654782 1.5707963268 1.5707963268 1.5707963268 1.5707963268 1.5707963268 1.5707963268 
1.5707963268 1.5707963268 1.5707963268 1.6743954455 1.7840462375 1.8974821136 2.0119052671 2.1243706857 2.232221744 
2.3334263672 2.426721652 2.5115728246 1.4671972081 1.3575464161 1.24411054 1.1296873865 1.0172219679 0.90937090954 
0.80816628637 0.71487100155 0.63001982895 1.6743954455 1.7840462375 1.8974821136 2.0119052671 2.1243706857 2.232221744 
2.3334263672 2.426721652 2.5115728246 1.4671972081 1.3575464161 1.24411054 1.1296873865 1.0172219679 0.90937090954 
0.80816628637 0.71487100155 0.63001982895 3.6007720849 3.4966939854 3.3839471039 3.2645756454 3.1415926536 3.0186096618 
2.8992382033 2.7864913217 2.6824132222 5.8240058758 5.9280839753 6.0408308569 6.1602023154 6.2831853072 0.12298299178 
0.2423544503 0.35510133185 0.45917943135 6.0560271438 5.7885595667 5.9702140275 5.5125918794 5.6029703303 5.7885595667 
5.2659633393 5.2659633393 5.2659633393 5.2659633393 5.0674903122 5.0120975802 4.9155579264 4.7123889804 4.1588146215 
4.9155579264 4.8353719722 4.7123889804 4.5092200343 4.1588146215 3.6362183941 4.8004512023 4.7123889804 4.5894059886 
4.4126803806 4.1588146215 3.8218076305 3.4545639333 4.7123889804 4.6243267584 4.5092200343 4.3572876485 4.1588146215 
3.9121860814 3.6362183941 3.368750817 6.0174235957 5.9434319871 5.8263323547 5.8809213739 5.7674481418 5.6279784266 
5.8278025282 5.718968232 5.5891129425 5.4372443565 5.7823484065 5.678536687 5.5575666702 5.4192596322 5.2659633393 
5.743164462 5.6444075337 5.5314983644 5.4046708639 5.2659633393 5.1195510325 5.7091357773 5.6152775188 5.5096229709 
5.3926039573 5.2659633393 5.1329233157 4.9978930058 5.6793730533 5.5901633916 5.4910209005 5.3824597928 5.2659633393 
5.1440684722 5.0201624502 4.8979782167 5.5683143056 5.4750190208 5.4750190208 5.3738143976 5.3738143976 5.3738143976 
5.2659633393 5.2659633393 5.2659633393 5.2659633393 5.1534979207 5.1534979207 5.1534979207 5.1534979207 5.1534979207 
5.0390747672 5.0390747672 5.0390747672 5.0390747672 5.0390747672 5.0390747672 4.9256388911 4.9256388911 4.9256388911 
4.9256388911 4.9256388911 4.9256388911 4.9256388911 4.8159880991 4.8159880991 4.8159880991 4.8159880991 4.8159880991 
4.8159880991 4.8159880991 4.8159880991 4.6087898617 4.6087898617 4.4991390697 4.6087898617 4.4991390697 4.3857031936 
4.6087898617 4.4991390697 4.3857031936 4.2712800401 4.6087898617 4.4991390697 4.3857031936 4.2712800401 4.1588146215 
4.6087898617 4.4991390697 4.3857031936 4.2712800401 4.1588146215 4.0509635631 4.6087898617 4.4991390697 4.3857031936 
4.2712800401 4.1588146215 4.0509635631 3.94975894 4.6087898617 4.4991390697 4.3857031936 4.2712800401 4.1588146215 
4.0509635631 3.94975894 3.8564636551 4.526799744 4.4046155105 4.426884955 4.2807094886 4.2918546451 4.3052269283 
4.1588146215 4.1588146215 4.1588146215 4.1588146215 4.042318168 4.0321740035 4.0201070968 4.0055183285 3.9875336042 
3.9337570603 3.9151549899 3.8932795963 3.8672112905 3.8356650183 3.7967995342 3.8346145692 3.809500442 3.7803704271 
3.7462412737 3.7058097288 3.657329819 3.5984456061 3.7454049075 3.7156421835 3.6816134988 3.6424295543 3.5969754326 
3.5438565869 3.4813459737 3.4073543651 3.5642842451 3.4524645613 3.5233842518 3.3320300872 3.403123212 3.4773852225 
3.20576226 3.2746326772 3.348015857 3.4255060145 3.0774230472 3.1415926536 3.2112816139 3.2864685043 3.3668817272 
2.95115522 3.00855263 3.0719036933 3.1415926536 3.2178377658 3.3005964304 2.8307207459 2.8800620952 2.9351694502 
2.9967168029 3.0653475414 3.1415926536 3.225752376 2.718901062 2.7598010554 2.8058000847 2.8576792927 2.91630358 
2.9825888767 3.0574329311 3.1415926536 3.5642842451 3.5233842518 3.4524645613 3.4773852225 3.403123212 3.3320300872 
3.4255060145 3.348015857 3.2746326772 3.20576226 3.3668817272 3.2864685043 3.2112816139 3.1415926536 3.0774230472 
3.3005964304 3.2178377658 3.1415926536 3.0719036933 3.00855263 2.95115522 3.225752376 3.1415926536 3.0653475414 
2.9967168029 2.9351694502 2.8800620952 2.8307207459 3.1415926536 3.0574329311 2.9825888767 2.91630358 2.8576792927 
2.8058000847 2.7598010554 2.718901062 4.526799744 4.426884955 4.4046155105 4.3052269283 4.2918546451 4.2807094886 
4.1588146215 4.1588146215 4.1588146215 4.1588146215 3.9875336042 4.0055183285 4.0201070968 4.0321740035 4.042318168 
3.7967995342 3.8356650183 3.8672112905 3.8932795963 3.9151549899 3.9337570603 3.5984456061 3.657329819 3.7058097288 
3.7462412737 3.7803704271 3.809500442 3.8346145692 3.4073543651 3.4813459737 3.5438565869 3.5969754326 3.6424295543 
3.6816134988 3.7156421835 3.7454049075 4.7123889804 4.8004512023 4.6243267584 4.9155579264 4.7123889804 4.5092200343 
5.0674903122 4.8353719722 4.5894059886 4.3572876485 5.2659633393 5.0120975802 4.7123889804 4.4126803806 4.1588146215 
5.5125918794 5.2659633393 4.9155579264 4.5092200343 4.1588146215 3.9121860814 5.7885595667 5.6029703303 5.2659633393 
4.7123889804 4.1588146215 3.8218076305 3.6362183941 6.0560271438 5.9702140275 5.7885595667 5.2659633393 4.1588146215 
3.6362183941 3.4545639333 3.368750817 0.22715816343 0.49462574053 0.3129712797 0.77059342779 0.68021497688 0.49462574053 
1.0172219679 1.0172219679 1.0172219679 1.0172219679 1.2156949949 1.271087727 1.3676273807 1.5707963268 2.1243706857 
1.3676273807 1.447813335 1.5707963268 1.7739652728 2.1243706857 2.6469669131 1.4827341049 1.5707963268 1.6937793186 
1.8705049266 2.1243706857 2.4613776767 2.8286213739 1.5707963268 1.6588585487 1.7739652728 1.9258976586 2.1243706857 
2.3709992258 2.6469669131 2.9144344902 1.7563855631 1.8785697967 1.8563003522 2.0024758186 1.9913306621 1.9779583789 
2.1243706857 2.1243706857 2.1243706857 2.1243706857 2.2408671392 2.2510113037 2.2630782103 2.2776669786 2.295651703 
2.3494282469 2.3680303173 2.3899057108 2.4159740166 2.4475202889 2.486385773 2.448570738 2.4736848652 2.5028148801 
2.5369440334 2.5773755784 2.6258554882 2.6847397011 2.5377803997 2.5675431237 2.6015718084 2.6407557529 2.6862098746 
2.7393287203 2.8018393335 2.8758309421 1.6743954455 1.6743954455 1.7840462375 1.6743954455 1.7840462375 1.8974821136 
1.6743954455 1.7840462375 1.8974821136 2.0119052671 1.6743954455 1.7840462375 1.8974821136 2.0119052671 2.1243706857 
1.6743954455 1.7840462375 1.8974821136 2.0119052671 2.1243706857 2.232221744 1.6743954455 1.7840462375 1.8974821136 
2.0119052671 2.1243706857 2.232221744 2.3334263672 1.6743954455 1.7840462375 1.8974821136 2.0119052671 2.1243706857 
2.232221744 2.3334263672 2.426721652 1.4671972081 1.3575464161 1.4671972081 1.24411054 1.3575464161 1.4671972081 
1.1296873865 1.24411054 1.3575464161 1.4671972081 1.0172219679 1.1296873865 1.24411054 1.3575464161 1.4671972081 
0.90937090954 1.0172219679 1.1296873865 1.24411054 1.3575464161 1.4671972081 0.80816628637 0.90937090954 1.0172219679 
1.1296873865 1.24411054 1.3575464161 1.4671972081 0.71487100155 0.80816628637 0.90937090954 1.0172219679 1.1296873865 
1.24411054 1.3575464161 1.4671972081 0.60381225391 0.57404952988 0.69302191562 0.54002084522 0.66790778838 0.79216440667 
0.50083690068 0.63877777351 0.77356233629 0.90072551443 0.45538277901 0.60464862014 0.75168694275 0.89058134991 1.0172219679 
0.40226393329 0.56421707518 0.72561863695 0.87851444325 1.0172219679 1.139116835 0.33975332011 0.51573716537 0.69407236469 
0.86392567495 1.0172219679 1.1502619915 1.2630228569 0.26576171152 0.45685295248 0.6552068806 0.84594095064 1.0172219679 
1.1636342747 1.2852923014 1.3852070904 0.22715816343 0.3129712797 0.49462574053 0.49462574053 0.68021497688 0.77059342779 
1.0172219679 1.0172219679 1.0172219679 1.0172219679 2.1243706857 1.5707963268 1.3676273807 1.271087727 1.2156949949 
2.6469669131 2.1243706857 1.7739652728 1.5707963268 1.447813335 1.3676273807 2.8286213739 2.4613776767 2.1243706857 
1.8705049266 1.6937793186 1.5707963268 1.4827341049 2.9144344902 2.6469669131 2.3709992258 2.1243706857 1.9258976586 
1.7739652728 1.6588585487 1.5707963268 1.7563855631 1.8563003522 1.8785697967 1.9779583789 1.9913306621 2.0024758186 
2.1243706857 2.1243706857 2.1243706857 2.1243706857 2.295651703 2.2776669786 2.2630782103 2.2510113037 2.2408671392 
2.486385773 2.4475202889 2.4159740166 2.3899057108 2.3680303173 2.3494282469 2.6847397011 2.6258554882 2.5773755784 
2.5369440334 2.5028148801 2.4736848652 2.448570738 2.8758309421 2.8018393335 2.7393287203 2.6862098746 2.6407557529 
2.6015718084 2.5675431237 2.5377803997 5.8604937156 5.901393709 5.9723133995 5.9473927383 6.0216547488 6.0927478736 
5.9992719463 6.0767621038 6.1501452836 6.2190157008 6.0578962336 6.1383094565 6.2134963469 0 0.064169606361 
6.1241815303 6.206940195 6.2831853072 0.069688960264 0.13304002361 0.19043743361 6.1990255847 0 0.07624511221 
0.14487585072 0.20642320337 0.26153055843 0.3108719077 0 0.084159722458 0.15900377685 0.22528907359 0.28391336087 
0.3357925689 0.38179159818 0.42269159155 5.8604937156 5.9723133995 5.901393709 6.0927478736 6.0216547488 5.9473927383 
6.2190157008 6.1501452836 6.0767621038 5.9992719463 0.064169606361 0 6.2134963469 6.1383094565 6.0578962336 
0.19043743361 0.13304002361 0.069688960264 6.2831853072 6.206940195 6.1241815303 0.3108719077 0.26153055843 0.20642320337 
0.14487585072 0.07624511221 6.2831853072 6.1990255847 0.42269159155 0.38179159818 0.3357925689 0.28391336087 0.22528907359 
0.15900377685 0.084159722458 0 5.6793730533 5.7091357773 5.5901633916 5.743164462 5.6152775188 5.4910209005 
5.7823484065 5.6444075337 5.5096229709 5.3824597928 5.8278025282 5.678536687 5.5314983644 5.3926039573 5.2659633393 
5.8809213739 5.718968232 5.5575666702 5.4046708639 5.2659633393 5.1440684722 5.9434319871 5.7674481418 5.5891129425 
5.4192596322 5.2659633393 5.1329233157 5.0201624502 6.0174235957 5.8263323547 5.6279784266 5.4372443565 5.2659633393 
5.1195510325 4.9978930058 4.8979782167 1.3852070904 1.2852923014 1.2630228569 1.1636342747 1.1502619915 1.139116835 
1.0172219679 1.0172219679 1.0172219679 1.0172219679 0.84594095064 0.86392567495 0.87851444325 0.89058134991 0.90072551443 
0.6552068806 0.69407236469 0.72561863695 0.75168694275 0.77356233629 0.79216440667 0.45685295248 0.51573716537 0.56421707518 
0.60464862014 0.63877777351 0.66790778838 0.69302191562 0.26576171152 0.33975332011 0.40226393329 0.45538277901 0.50083690068 
0.54002084522 0.57404952988 0.60381225391 
_paraPhiHalf 1 1002 double
0 3.1415926536 0 3.1415926536 1.5707963268 1.5707963268 1.5707963268 1.5707963268 2.5880182947 
0.5535743589 2.5880182947 0.5535743589 0 0 0 0 3.1415926536 3.1415926536 
3.1415926536 3.1415926536 3.1415926536 0.17788134 0.38438696014 0.60631181711 0.82323535693 1.0172219679 1.1799687454 
1.3118704726 1.4175000338 1.5022335207 0.17788134 0.38438696014 0.60631181711 0.82323535693 1.0172219679 1.1799687454 
1.3118704726 1.4175000338 1.5022335207 0.093902416448 0.17615329733 0.2478725152 0.31035131605 0.36486382811 0.41257334776 
0.45449736604 0.4915044461 0.52432611754 0.093902416448 0.17615329733 0.2478725152 0.31035131605 0.36486382811 0.41257334776 
0.45449736604 0.4915044461 0.52432611754 2.9637113136 2.7572056934 2.5352808365 2.3183572967 2.1243706857 1.9616239082 
1.829722181 1.7240926197 1.6393591329 2.9637113136 2.7572056934 2.5352808365 2.3183572967 2.1243706857 1.9616239082 
1.829722181 1.7240926197 1.6393591329 3.0476902371 2.9654393563 2.8937201384 2.8312413375 2.7767288255 2.7290193058 
2.6870952876 2.6500882075 2.617266536 3.0476902371 2.9654393563 2.8937201384 2.8312413375 2.7767288255 2.7290193058 
2.6870952876 2.6500882075 2.617266536 0 0 0 0 3.1415926536 3.1415926536 
3.1415926536 3.1415926536 3.1415926536 0.17788134 0.38438696014 0.60631181711 0.82323535693 1.0172219679 1.1799687454 
1.3118704726 1.4175000338 1.5022335207 0.17788134 0.38438696014 0.60631181711 0.82323535693 1.0172219679 1.1799687454 
1.3118704726 1.4175000338 1.5022335207 0.093902416448 0.17615329733 0.2478725152 0.31035131605 0.36486382811 0.41257334776 
0.45449736604 0.4915044461 0.52432611754 0.093902416448 0.17615329733 0.2478725152 0.31035131605 0.36486382811 0.41257334776 
0.45449736604 0.4915044461 0.52432611754 2.9637113136 2.7572056934 2.5352808365 2.3183572967 2.1243706857 1.9616239082 
1.829722181 1.7240926197 1.6393591329 2.9637113136 2.7572056934 2.5352808365 2.3183572967 2.1243706857 1.9616239082 
1.829722181 1.7240926197 1.6393591329 3.0476902371 2.9654393563 2.8937201384 2.8312413375 2.7767288255 2.7290193058 
2.6870952876 2.6500882075 2.617266536 3.0476902371 2.9654393563 2.8937201384 2.8312413375 2.7767288255 2.7290193058 
2.6870952876 2.6500882075 2.617266536 1.5707963268 1.5707963268 1.5707963268 1.5707963268 1.5707963268 1.5707963268 
1.5707963268 1.5707963268 1.5707963268 1.6743954455 1.7840462375 1.8974821136 2.0119052671 2.1243706857 2.232221744 
2.3334263672 2.426721652 2.5115728246 1.4671972081 1.3575464161 1.24411054 1.1296873865 1.0172219679 0.90937090954 
0.80816628637 0.71487100155 0.63001982895 1.6743954455 1.7840462375 1.8974821136 2.0119052671 2.1243706857 2.232221744 
2.3334263672 2.426721652 2.5115728246 1.4671972081 1.3575464161 1.24411054 1.1296873865 1.0172219679 0.90937090954 
0.80816628637 0.71487100155 0.63001982895 1.5707963268 1.5707963268 1.5707963268 1.5707963268 1.5707963268 1.5707963268 
1.5707963268 1.5707963268 1.5707963268 1.6743954455 1.7840462375 1.8974821136 2.0119052671 2.1243706857 2.232221744 
2.3334263672 2.426721652 2.5115728246 1.4671972081 1.3575464161 1.24411054 1.1296873865 1.0172219679 0.90937090954 
0.80816628637 0.71487100155 0.63001982895 1.6743954455 1.7840462375 1.8974821136 2.0119052671 2.1243706857 2.232221744 
2.3334263672 2.426721652 2.5115728246 1.4671972081 1.3575464161 1.24411054 1.1296873865 1.0172219679 0.90937090954 
0.80816628637 0.71487100155 0.63001982895 2.6824132222 2.7864913217 2.8992382033 3.0186096618 3.1415926536 3.0186096618 
2.8992382033 2.7864913217 2.6824132222 0.45917943135 0.35510133185 0.2423544503 0.12298299178 0 0.12298299178 
0.2423544503 0.35510133185 0.45917943135 0.22715816343 0.49462574053 0.3129712797 0.77059342779 0.68021497688 0.49462574053 
1.0172219679 1.0172219679 1.0172219679 1.0172219679 1.2156949949 1.271087727 1.3676273807 1.5707963268 2.1243706857 
1.3676273807 1.447813335 1.5707963268 1.7739652728 2.1243706857 2.6469669131 1.4827341049 1.5707963268 1.6937793186 
1.8705049266 2.1243706857 2.4613776767 2.8286213739 1.5707963268 1.6588585487 1.7739652728 1.9258976586 2.1243706857 
2.3709992258 2.6469669131 2.9144344902 0.26576171152 0.33975332011 0.45685295248 0.40226393329 0.51573716537 0.6552068806 
0.45538277901 0.56421707518 0.69407236469 0.84594095064 0.50083690068 0.60464862014 0.72561863695 0.86392567495 1.0172219679 
0.54002084522 0.63877777351 0.75168694275 0.87851444325 1.0172219679 1.1636342747 0.57404952988 0.66790778838 0.77356233629 
0.89058134991 1.0172219679 1.1502619915 1.2852923014 0.60381225391 0.69302191562 0.79216440667 0.90072551443 1.0172219679 
1.139116835 1.2630228569 1.3852070904 0.71487100155 0.80816628637 0.80816628637 0.90937090954 0.90937090954 0.90937090954 
1.0172219679 1.0172219679 1.0172219679 1.0172219679 1.1296873865 1.1296873865 1.1296873865 1.1296873865 1.1296873865 
1.24411054 1.24411054 1.24411054 1.24411054 1.24411054 1.24411054 1.3575464161 1.3575464161 1.3575464161 
1.3575464161 1.3575464161 1.3575464161 1.3575464161 1.4671972081 1.4671972081 1.4671972081 1.4671972081 1.4671972081 
1.4671972081 1.4671972081 1.4671972081 1.6743954455 1.6743954455 1.7840462375 1.6743954455 1.7840462375 1.8974821136 
1.6743954455 1.7840462375 1.8974821136 2.0119052671 1.6743954455 1.7840462375 1.8974821136 2.0119052671 2.1243706857 
1.6743954455 1.7840462375 1.8974821136 2.0119052671 2.1243706857 2.232221744 1.6743954455 1.7840462375 1.8974821136 
2.0119052671 2.1243706857 2.232221744 2.3334263672 1.6743954455 1.7840462375 1.8974821136 2.0119052671 2.1243706857 
2.232221744 2.3334263672 2.426721652 1.7563855631 1.8785697967 1.8563003522 2.0024758186 1.9913306621 1.9779583789 
2.1243706857 2.1243706857 2.1243706857 2.1243706857 2.2408671392 2.2510113037 2.2630782103 2.2776669786 2.295651703 
2.3494282469 2.3680303173 2.3899057108 2.4159740166 2.4475202889 2.486385773 2.448570738 2.4736848652 2.5028148801 
2.5369440334 2.5773755784 2.6258554882 2.6847397011 2.5377803997 2.5675431237 2.6015718084 2.6407557529 2.6862098746 
2.7393287203 2.8018393335 2.8758309421 2.718901062 2.8307207459 2.7598010554 2.95115522 2.8800620952 2.8058000847 
3.0774230472 3.00855263 2.9351694502 2.8576792927 3.0774230472 3.1415926536 3.0719036933 2.9967168029 2.91630358 
2.95115522 3.00855263 3.0719036933 3.1415926536 3.0653475414 2.9825888767 2.8307207459 2.8800620952 2.9351694502 
2.9967168029 3.0653475414 3.1415926536 3.0574329311 2.718901062 2.7598010554 2.8058000847 2.8576792927 2.91630358 
2.9825888767 3.0574329311 3.1415926536 2.718901062 2.7598010554 2.8307207459 2.8058000847 2.8800620952 2.95115522 
2.8576792927 2.9351694502 3.00855263 3.0774230472 2.91630358 2.9967168029 3.0719036933 3.1415926536 3.0774230472 
2.9825888767 3.0653475414 3.1415926536 3.0719036933 3.00855263 2.95115522 3.0574329311 3.1415926536 3.0653475414 