# vtk DataFile Version 5.1
vtk output
ASCII
DATASET POLYDATA
POINTS 1002 float
-8.53901 -0.158337 -3.33489 8.74355 -0.747302 -3.03581 -7.85839 0.24526 3.36649 
7.77079 -0.51271 2.33478 -1.17619 1.6515 -2.17528 -1.56252 1.96722 1.29549 
-0.614856 -6.06094 -2.09805 0.0741742 -6.4383 2.06315 14.2064 8.82276 0.899949 
-12.9525 7.53051 0.921596 13.5507 -2.40755 0.0657056 -12.4595 -3.35836 0.0657986 
-7.44287 -0.514712 -3.3798 -6.12982 -0.935763 -3.41457 -4.60991 -1.40105 -3.44375 
-2.79972 -1.82958 -3.40428 -0.669155 -2.12112 -3.31296 1.58312 -2.20283 -3.26807 
3.76411 -2.05352 -3.24854 5.76788 -1.71824 -3.20541 7.4469 -1.26729 -3.14616 
-8.32803 0.302082 -3.39149 -8.00369 0.80167 -3.36321 -7.57995 1.29039 -3.33286 
-7.03385 1.69907 -3.37246 -6.24375 1.97123 -3.35412 -5.20785 2.10925 -3.16909 
-4.14897 2.17223 -2.92464 -3.18483 2.14063 -2.69828 -2.21711 1.94584 -2.44979 
-8.0367 -0.812509 -3.25144 -7.42162 -1.52171 -3.16393 -6.7104 -2.30313 -3.12338 
-5.93697 -3.0842 -3.06352 -5.10826 -3.78334 -2.92211 -4.20626 -4.40452 -2.76058 
-3.2485 -4.94702 -2.61057 -2.29709 -5.39191 -2.44006 -1.41208 -5.75692 -2.26013 
-9.42958 0.500882 -3.29285 -10.338 1.29606 -3.16052 -11.2718 2.20987 -2.93788 
-12.1585 3.21977 -2.62189 -12.871 4.34441 -2.20965 -13.3565 5.49145 -1.71244 
-13.6032 6.41876 -1.11046 -13.591 7.01809 -0.403529 -13.3498 7.3681 0.31199 
-9.23506 -0.249349 -3.21261 -9.92731 -0.402415 -3.06358 -10.6146 -0.633201 -2.91474 
-11.2205 -0.953439 -2.71362 -11.7165 -1.3417 -2.39932 -12.1402 -1.75669 -2.03118 
-12.4354 -2.20549 -1.64434 -12.5546 -2.67955 -1.14776 -12.5512 -3.08759 -0.533293 
8.48674 -0.406894 -3.0363 8.07314 -0.0550554 -3.01071 7.47455 0.307086 -2.95876 
6.7341 0.58879 -2.84394 5.89202 0.732877 -2.6806 4.83751 0.828537 -2.53034 
3.43466 0.899251 -2.39415 1.78693 0.941288 -2.27297 0.176405 1.14204 -2.20582 
8.15325 -1.45138 -3.08519 7.36381 -2.18769 -3.08448 6.39328 -2.89725 -3.05885 
5.34636 -3.54817 -3.02144 4.30344 -4.15657 -2.93812 3.24587 -4.69676 -2.79614 
2.17056 -5.13642 -2.63972 1.1435 -5.50212 -2.48785 0.213731 -5.81267 -2.31194 
9.74826 0.113797 -2.8228 10.7775 1.20519 -2.45292 11.863 2.47854 -2.04935 
12.8941 3.75916 -1.79481 13.7028 4.92999 -1.6261 14.2791 6.09507 -1.36652 
14.6517 7.30281 -0.993806 14.7304 8.30646 -0.477873 14.5215 8.82498 0.204588 
9.56744 -0.616377 -2.87803 10.4509 -0.470433 -2.63776 11.3848 -0.328519 -2.36547 
12.2067 -0.297016 -2.07364 12.8087 -0.467259 -1.75704 13.246 -0.7718 -1.45997 
13.5808 -1.14234 -1.16804 13.7855 -1.58392 -0.798499 13.7824 -2.03456 -0.358702 
-6.78096 -0.183698 3.39957 -5.51937 -0.604509 3.49799 -4.07273 -1.00803 3.5758 
-2.47606 -1.40824 3.41904 -0.735382 -1.7545 3.06622 1.12234 -1.91154 2.73462 
2.98779 -1.79836 2.46559 4.75524 -1.46804 2.28188 6.36326 -1.01638 2.2553 
-7.51092 0.666883 3.32469 -7.0687 1.06109 3.24928 -6.523 1.38972 3.1409 
-5.92973 1.71072 2.99233 -5.29226 2.01291 2.7946 -4.55628 2.18587 2.56951 
-3.76122 2.2431 2.32297 -2.9956 2.24022 2.0232 -2.27419 2.14433 1.66743 
-7.52556 -0.422722 3.42736 -7.12891 -1.06734 3.5491 -6.61055 -1.75854 3.67075 
-5.84259 -2.60491 3.6221 -4.78874 -3.54505 3.38734 -3.60466 -4.43694 3.15264 
-2.48959 -5.20829 2.9651 -1.52444 -5.79663 2.71462 -0.684428 -6.1841 2.38895 
-8.67076 0.967596 3.30447 -9.47627 1.73336 3.14255 -10.2283 2.502 2.8798 
-10.9392 3.35114 2.63082 -11.6222 4.28406 2.43898 -12.1875 5.14232 2.23391 
-12.5896 5.90035 1.99261 -12.8662 6.6218 1.72001 -12.9939 7.20654 1.37032 
-8.71839 0.240823 3.33584 -9.65827 0.177856 3.19577 -10.5933 -0.0122502 2.94763 
-11.4062 -0.346831 2.65082 -12.045 -0.778437 2.28561 -12.5159 -1.3 1.83603 
-12.8081 -1.91743 1.4038 -12.8852 -2.53834 1.01046 -12.7461 -3.03555 0.567173 
7.31706 -0.284796 2.25919 6.71683 -0.0843453 2.16813 5.94939 0.0799311 2.04663 
5.02506 0.187971 1.8775 3.96569 0.294083 1.73048 2.79305 0.475291 1.67337 
1.56206 0.721899 1.6371 0.367296 1.03313 1.54765 -0.692857 1.45168 1.42338 
7.3134 -1.10999 2.33777 6.75922 -1.76739 2.34766 6.13081 -2.4532 2.3736 
5.45434 -3.15728 2.40338 4.69813 -3.87999 2.42428 3.8481 -4.56642 2.42246 
2.96145 -5.16211 2.36985 2.04723 -5.67102 2.26954 1.0727 -6.09917 2.16276 
8.86502 0.217548 2.37263 10.0196 1.07795 2.35167 11.1714 2.07413 2.34584 
12.2114 3.22426 2.44738 13.1169 4.46029 2.51507 13.8896 5.64765 2.42106 
14.37 6.76026 2.27393 14.4745 7.776 2.04495 14.3678 8.51533 1.56793 
8.82035 -0.362815 2.42034 9.85247 -0.279221 2.45285 10.8252 -0.302947 2.41276 
11.7002 -0.460454 2.32072 12.4513 -0.78882 2.17431 13.0474 -1.24393 1.91414 
13.4515 -1.66079 1.51766 13.6585 -1.95673 1.04446 13.6855 -2.1913 0.552541 
-1.25571 1.88975 -1.97044 -1.35499 2.16962 -1.73357 -1.45557 2.43743 -1.46406 
-1.50582 2.61856 -1.13958 -1.52242 2.71941 -0.739499 -1.55618 2.74702 -0.298769 
-1.58541 2.64926 0.146164 -1.58829 2.43842 0.579938 -1.582 2.19558 0.968144 
0.926339 1.18233 -1.90794 3.43115 1.44515 -1.67638 5.74934 2.52774 -1.53635 
7.49615 3.92649 -1.39314 8.94713 5.10628 -1.09215 10.3988 6.0397 -0.675645 
11.6986 6.92786 -0.318196 12.717 7.80756 -0.0010542 13.535 8.51218 0.410515 
-2.87656 2.7138 -2.26104 -4.3146 3.89775 -2.1736 -5.7185 4.73503 -1.89018 
-7.13621 5.39182 -1.50489 -8.36667 6.27691 -1.09388 -9.42453 7.14227 -0.678436 
-10.4418 7.61028 -0.257301 -11.3942 7.78587 0.184773 -12.2397 7.77998 0.605387 
-0.155855 1.50314 1.00066 1.81317 1.36925 0.784972 4.29993 1.81898 0.774764 
6.74634 2.83716 0.926933 8.64268 4.15115 1.08636 10.1578 5.44617 1.19776 
11.5442 6.5571 1.27237 12.672 7.52105 1.27949 13.5044 8.33645 1.16369 
-2.74414 2.72599 1.39046 -3.89522 3.58223 1.48031 -5.07832 4.42488 1.57335 
-6.293 5.26264 1.66854 -7.49386 6.10801 1.76632 -8.65286 6.85055 1.82178 
-9.78065 7.38876 1.75205 -10.9103 7.69362 1.55391 -12.0055 7.73657 1.27241 
-0.646917 -6.37169 -1.84226 -0.706681 -6.68773 -1.52668 -0.750618 -6.9929 -1.10505 
-0.719267 -7.22759 -0.557757 -0.623277 -7.30096 0.0274666 -0.535477 -7.22203 0.537157 
-0.45649 -7.09383 0.982022 -0.315638 -6.94428 1.40601 -0.113435 -6.72824 1.77543 
0.724104 -6.18264 -2.0769 2.23015 -6.27526 -2.04469 3.77388 -6.34338 -2.045 
5.37819 -6.2611 -2.07305 7.31108 -5.82773 -2.0067 9.41595 -5.1196 -1.73868 
11.0457 -4.4177 -1.30657 12.0569 -3.77315 -0.817118 12.8342 -3.09228 -0.346996 
-1.90236 -6.08563 -1.94215 -3.28269 -6.07778 -1.78686 -4.76059 -6.03644 -1.68521 
-6.24291 -5.89878 -1.57552 -7.62102 -5.65705 -1.37544 -8.88426 -5.38597 -1.11962 
-10.0029 -5.04089 -0.841156 -10.937 -4.54137 -0.532 -11.7405 -3.95251 -0.21979 
1.51469 -6.48905 1.82995 3.13764 -6.57291 1.62533 4.83279 -6.58348 1.41412 
6.50124 -6.40127 1.18415 8.11519 -6.00517 0.96258 9.57826 -5.40599 0.738286 
10.7695 -4.66688 0.518497 11.7747 -3.89918 0.347911 12.7203 -3.14655 0.212888 
-1.41601 -6.60022 2.1485 -3.01356 -6.71648 2.17391 -4.7169 -6.70356 2.08877 
-6.45154 -6.53052 1.93931 -8.01536 -6.22569 1.74107 -9.2609 -5.79008 1.43191 
-10.2472 -5.21743 1.06665 -11.0961 -4.57383 0.742812 -11.8405 -3.94471 0.427034 
14.988 8.71755 0.956022 15.632 7.85323 0.902278 16.0082 6.38438 0.802518 
16.2009 4.82244 0.772069 16.1903 3.40302 0.756524 15.8494 1.98444 0.631125 
15.3923 0.613464 0.445725 14.9661 -0.539114 0.30049 14.3673 -1.51473 0.188826 
-13.8139 6.95477 0.78492 -14.474 6.1126 0.570044 -14.8672 5.13222 0.349264 
-15.0907 4.04385 0.143247 -15.1551 2.7262 -0.0432773 -14.9443 1.18362 -0.137263 
-14.5005 -0.342521 -0.127477 -13.9217 -1.6116 -0.0793334 -13.2211 -2.58192 -0.011352 
-7.10359 -0.0934428 -3.42715 -6.68104 0.365538 -3.39782 -5.66491 -0.570847 -3.45885 
-6.18181 0.791109 -3.39058 -5.15172 -0.198708 -3.44325 -3.97038 -1.11908 -3.47087 
-5.46665 1.07683 -3.4199 -4.50352 0.116238 -3.40925 -3.20767 -0.864227 -3.44065 
-1.86353 -1.6085 -3.41241 -4.42938 1.17583 -3.33485 -3.51707 0.303879 -3.31061 
-2.18108 -0.60353 -3.3032 -0.681449 -1.35678 -3.35353 0.562246 -1.83953 -3.32642 
-3.25666 1.18826 -3.10164 -2.22711 0.381846 -3.10888 -0.845641 -0.33413 -3.06385 
0.734257 -0.954964 -3.14493 2.02001 -1.40177 -3.24167 2.95648 -1.74026 -3.24747 
-2.13641 1.21606 -2.81748 -0.864901 0.497405 -2.85819 0.629698 -0.0375801 -2.83802 
2.19959 -0.445784 -2.90031 3.4961 -0.765092 -3.05169 4.40939 -1.0809 -3.14141 
5.13791 -1.40942 -3.17022 -1.01088 1.20856 -2.51469 0.481126 0.709044 -2.57671 
2.09353 0.378329 -2.63543 3.58495 0.134204 -2.72081 4.78415 -0.0458072 -2.87193 
5.69507 -0.278698 -3.01207 6.42292 -0.610513 -3.07813 7.01427 -0.951495 -3.11768 
-9.25153 1.06711 -3.30658 -10.1771 1.96295 -3.12816 -8.94127 1.6406 -3.2658 
-11.0847 2.97817 -2.84182 -9.87549 2.6155 -3.08632 -8.52314 2.17929 -3.26329 
-11.8896 4.11257 -2.4434 -10.728 3.75541 -2.74125 -9.48044 3.26745 -3.04382 
-7.96576 2.66145 -3.24189 -12.4907 5.31467 -1.96516 -11.3806 4.99015 -2.24208 
-10.2299 4.52039 -2.59056 -8.89408 3.85757 -2.86765 -7.10394 3.02547 -3.05395 
-12.8224 6.37265 -1.41314 -11.782 6.12067 -1.68807 -10.6099 5.68118 -2.02551 
-9.43375 5.03335 -2.35036 -7.88714 4.20814 -2.58937 -5.96506 3.22975 -2.80249 
-12.8466 7.10594 -0.758534 -11.8991 6.96268 -1.09581 -10.7248 6.5807 -1.44925 
-9.53196 5.9171 -1.82274 -8.24149 5.12288 -2.13872 -6.58888 4.2966 -2.41407 
-4.83439 3.27578 -2.63768 -12.6139 7.54769 -0.0501063 -11.7307 7.49379 -0.454848 
-10.6621 7.22221 -0.85325 -9.49693 6.60044 -1.25683 -8.31096 5.72617 -1.6523 
-6.92109 4.96672 -2.01365 -5.36074 4.19876 -2.3219 -3.83468 3.10509 -2.4842 
-11.1923 7.8874 0.911885 -10.0471 7.73333 1.1594 -10.2698 7.79478 0.434107 
-8.89102 7.29511 1.31913 -9.11638 7.51156 0.619728 -9.32023 7.48538 -0.066111 
-7.72335 6.6158 1.34526 -7.96435 6.91915 0.701151 -8.2123 7.01258 0.0320826 
-8.3687 6.77873 -0.539333 -6.50286 5.8096 1.29371 -6.72013 6.18341 0.720297 
-6.96155 6.32937 0.0576837 -7.17129 6.18187 -0.491575 -7.22086 5.79308 -0.981126 
-5.2279 4.96345 1.23604 -5.3618 5.42595 0.756363 -5.48808 5.67094 0.135291 
-5.64489 5.59967 -0.454563 -5.78113 5.3071 -0.922398 -5.79361 5.00215 -1.40227 
-3.98025 4.04786 1.15747 -4.04008 4.52244 0.747407 -4.06032 4.88387 0.222613 
[...]
POINT_DATA 1002
FIELD FieldData 4
_paraPhi 1 1002 double
6.2831853072 3.1415926536 6.2831853072 3.1415926536 4.7123889804 4.7123889804 1.5707963268 1.5707963268 3.6951670125 
5.7296109483 2.5880182947 0.5535743589 6.2831853072 6.2831853072 6.2831853072 6.2831853072 3.1415926536 3.1415926536 
3.1415926536 3.1415926536 3.1415926536 6.1053039672 5.898798347 5.6768734901 5.4599499503 5.2659633393 5.1032165617 
4.9713148346 4.8656852733 4.7809517865 0.17788134 0.38438696014 0.60631181711 0.82323535693 1.0172219679 1.1799687454 
1.3118704726 1.4175000338 1.5022335207 6.1892828907 6.1070320098 6.035312792 5.9728339911 5.9183214791 5.8706119594 
5.8286879411 5.7916808611 5.7588591896 0.093902416448 0.17615329733 0.2478725152 0.31035131605 0.36486382811 0.41257334776 
0.45449736604 0.4915044461 0.52432611754 3.3194739936 3.5259796137 3.7479044707 3.9648280105 4.1588146215 4.321561399 
4.4534631262 4.5590926874 4.6438261743 2.9637113136 2.7572056934 2.5352808365 2.3183572967 2.1243706857 1.9616239082 
1.829722181 1.7240926197 1.6393591329 3.23549507 3.3177459509 3.3894651688 3.4519439696 3.5064564817 3.5541660013 
3.5960900196 3.6330970997 3.6659187711 3.0476902371 2.9654393563 2.8937201384 2.8312413375 2.7767288255 2.7290193058 
2.6870952876 2.6500882075 2.617266536 6.2831853072 6.2831853072 6.2831853072 6.2831853072 3.1415926536 3.1415926536 
3.1415926536 3.1415926536 3.1415926536 6.1053039672 5.898798347 5.6768734901 5.4599499503 5.2659633393 5.1032165617 
4.9713148346 4.8656852733 4.7809517865 0.17788134 0.38438696014 0.60631181711 0.82323535693 1.0172219679 1.1799687454 
1.3118704726 1.4175000338 1.5022335207 6.1892828907 6.1070320098 6.035312792 5.9728339911 5.9183214791 5.8706119594 
5.8286879411 5.7916808611 5.7588591896 0.093902416448 0.17615329733 0.2478725152 0.31035131605 0.36486382811 0.41257334776 
0.45449736604 0.4915044461 0.52432611754 3.3194739936 3.5259796137 3.7479044707 3.9648280105 4.1588146215 4.321561399 
4.4534631262 4.5590926874 4.6438261743 2.9637113136 2.7572056934 2.5352808365 2.3183572967 2.1243706857 1.9616239082 
1.829722181 1.7240926197 1.6393591329 3.23549507 3.3177459509 3.3894651688 3.4519439696 3.5064564817 3.5541660013 
3.5960900196 3.6330970997 3.6659187711 3.0476902371 2.9654393563 2.8937201384 2.8312413375 2.7767288255 2.7290193058 
2.6870952876 2.6500882075 2.617266536 4.7123889804 4.7123889804 4.7123889804 4.7123889804 4.7123889804 4.7123889804 
4.7123889804 4.7123889804 4.7123889804 4.6087898617 4.4991390697 4.3857031936 4.2712800401 4.1588146215 4.0509635631 
3.94975894 3.8564636551 3.7716124825 4.8159880991 4.9256388911 5.0390747672 5.1534979207 5.2659633393 5.3738143976 
5.4750190208 5.5683143056 5.6531654782 4.6087898617 4.4991390697 4.3857031936 4.2712800401 4.1588146215 4.0509635631 
3.94975894 3.8564636551 3.7716124825 4.8159880991 4.9256388911 5.0390747672 5.1534979207 5.2659633393 5.3738143976 
5.4750190208 5.5683143056 5.6531654782 1.5707963268 1.5707963268 1.5707963268 1.5707963268 1.5707963268 1.5707963268 
1.5707963268 1.5707963268 1.5707963268 1.6743954455 1.7840462375 1.8974821136 2.0119052671 2.1243706857 2.232221744 
2.3334263672 2.426721652 2.5115728246 1.4671972081 1.3575464161 1.24411054 1.1296873865 1.0172219679 0.90937090954 
0.80816628637 0.71487100155 0.63001982895 1.6743954455 1.7840462375 1.8974821136 2.0119052671 2.1243706857 2.232221744 
2.3334263672 2.426721652 2.5115728246 1.4671972081 1.3575464161 1.24411054 1.1296873865 1.0172219679 0.90937090954 
0.80816628637 0.71487100155 0.63001982895 3.6007720849 3.4966939854 3.3839471039 3.2645756454 3.1415926536 3.0186096618 
2.8992382033 2.7864913217 2.6824132222 5.8240058758 5.9280839753 6.0408308569 6.1602023154 6.2831853072 0.12298299178 
0.2423544503 0.35510133185 0.45917943135 6.0560271438 5.7885595667 5.9702140275 5.5125918794 5.6029703303 5.7885595667 
5.2659633393 5.2659633393 5.2659633393 5.2659633393 5.0674903122 5.0120975802 4.9155579264 4.7123889804 4.1588146215 
4.9155579264 4.8353719722 4.7123889804 4.5092200343 4.1588146215 3.6362183941 4.8004512023 4.7123889804 4.5894059886 
4.4126803806 4.1588146215 3.8218076305 3.4545639333 4.7123889804 4.6243267584 4.5092200343 4.3572876485 4.1588146215 
3.9121860814 3.6362183941 3.368750817 6.0174235957 5.9434319871 5.8263323547 5.8809213739 5.7674481418 5.6279784266 
5.8278025282 5.718968232 5.5891129425 5.4372443565 5.7823484065 5.678536687 5.5575666702 5.4192596322 5.2659633393 
5.743164462 5.6444075337 5.5314983644 5.4046708639 5.2659633393 5.1195510325 5.7091357773 5.6152775188 5.5096229709 
5.3926039573 5.2659633393 5.1329233157 4.9978930058 5.6793730533 5.5901633916 5.4910209005 5.3824597928 5.2659633393 
5.1440684722 5.0201624502 4.8979782167 5.5683143056 5.4750190208 5.4750190208 5.3738143976 5.3738143976 5.3738143976 
5.2659633393 5.2659633393 5.2659633393 5.2659633393 5.1534979207 5.1534979207 5.1534979207 5.1534979207 5.1534979207 
5.0390747672 5.0390747672 5.0390747672 5.0390747672 5.0390747672 5.0390747672 4.9256388911 4.9256388911 4.9256388911 
4.9256388911 4.9256388911 4.9256388911 4.9256388911 4.8159880991 4.8159880991 4.8159880991 4.8159880991 4.8159880991 
4.8159880991 4.8159880991 4.8159880991 4.6087898617 4.6087898617 4.4991390697 4.6087898617 4.4991390697 4.3857031936 
4.6087898617 4.4991390697 4.3857031936 4.2712800401 4.6087898617 4.4991390697 4.3857031936 4.2712800401 4.1588146215 
4.6087898617 4.4991390697 4.3857031936 4.2712800401 4.1588146215 4.0509635631 4.6087898617 4.4991390697 4.3857031936 
4.2712800401 4.1588146215 4.0509635631 3.94975894 4.6087898617 4.4991390697 4.3857031936 4.2712800401 4.1588146215 
4.0509635631 3.94975894 3.8564636551 4.526799744 4.4046155105 4.426884955 4.2807094886 4.2918546451 4.3052269283 
4.1588146215 4.1588146215 4.1588146215 4.1588146215 4.042318168 4.0321740035 4.0201070968 4.0055183285 3.9875336042 
3.9337570603 3.9151549899 3.8932795963 3.8672112905 3.8356650183 3.7967995342 3.8346145692 3.809500442 3.7803704271 
3.7462412737 3.7058097288 3.657329819 3.5984456061 3.7454049075 3.7156421835 3.6816134988 3.6424295543 3.5969754326 
3.5438565869 3.4813459737 3.4073543651 3.5642842451 3.4524645613 3.5233842518 3.3320300872 3.403123212 3.4773852225 
3.20576226 3.2746326772 3.348015857 3.4255060145 3.0774230472 3.1415926536 3.2112816139 3.2864685043 3.3668817272 
2.95115522 3.00855263 3.0719036933 3.1415926536 3.2178377658 3.3005964304 2.8307207459 2.8800620952 2.9351694502 
2.9967168029 3.0653475414 3.1415926536 3.225752376 2.718901062 2.7598010554 2.8058000847 2.8576792927 2.91630358 
2.9825888767 3.0574329311 3.1415926536 3.5642842451 3.5233842518 3.4524645613 3.4773852225 3.403123212 3.3320300872 
3.4255060145 3.348015857 3.2746326772 3.20576226 3.3668817272 3.2864685043 3.2112816139 3.1415926536 3.0774230472 
3.3005964304 3.2178377658 3.1415926536 3.0719036933 3.00855263 2.95115522 3.225752376 3.1415926536 3.0653475414 
2.9967168029 2.9351694502 2.8800620952 2.8307207459 3.1415926536 3.0574329311 2.9825888767 2.91630358 2.8576792927 
2.8058000847 2.7598010554 2.718901062 4.526799744 4.426884955 4.4046155105 4.3052269283 4.2918546451 4.2807094886 
4.1588146215 4.1588146215 4.1588146215 4.1588146215 3.9875336042 4.0055183285 4.0201070968 4.0321740035 4.042318168 
3.7967995342 3.8356650183 3.8672112905 3.8932795963 3.9151549899 3.9337570603 3.5984456061 3.657329819 3.7058097288 
3.7462412737 3.7803704271 3.809500442 3.8346145692 3.4073543651 3.4813459737 3.5438565869 3.5969754326 3.6424295543 
3.6816134988 3.7156421835 3.7454049075 4.7123889804 4.8004512023 4.6243267584 4.9155579264 4.7123889804 4.5092200343 
5.0674903122 4.8353719722 4.5894059886 4.3572876485 5.2659633393 5.0120975802 4.7123889804 4.4126803806 4.1588146215 
5.5125918794 5.2659633393 4.9155579264 4.5092200343 4.1588146215 3.9121860814 5.7885595667 5.6029703303 5.2659633393 
4.7123889804 4.1588146215 3.8218076305 3.6362183941 6.0560271438 5.9702140275 5.7885595667 5.2659633393 4.1588146215 
3.6362183941 3.4545639333 3.368750817 0.22715816343 0.49462574053 0.3129712797 0.77059342779 0.68021497688 0.49462574053 
1.0172219679 1.0172219679 1.0172219679 1.0172219679 1.2156949949 1.271087727 1.3676273807 1.5707963268 2.1243706857 
1.3676273807 1.447813335 1.5707963268 1.7739652728 2.1243706857 2.6469669131 1.4827341049 1.5707963268 1.6937793186 
1.8705049266 2.1243706857 2.4613776767 2.8286213739 1.5707963268 1.6588585487 1.7739652728 1.9258976586 2.1243706857 
2.3709992258 2.6469669131 2.9144344902 1.7563855631 1.8785697967 1.8563003522 2.0024758186 1.9913306621 1.9779583789 
2.1243706857 2.1243706857 2.1243706857 2.1243706857 2.2408671392 2.2510113037 2.2630782103 2.2776669786 2.295651703 
2.3494282469 2.3680303173 2.3899057108 2.4159740166 2.4475202889 2.486385773 2.448570738 2.4736848652 2.5028148801 
2.5369440334 2.5773755784 2.6258554882 2.6847397011 2.5377803997 2.5675431237 2.6015718084 2.6407557529 2.6862098746 
2.7393287203 2.8018393335 2.8758309421 1.6743954455 1.6743954455 1.7840462375 1.6743954455 1.7840462375 1.8974821136 
1.6743954455 1.7840462375 1.8974821136 2.0119052671 1.6743954455 1.7840462375 1.8974821136 2.0119052671 2.1243706857 
1.6743954455 1.7840462375 1.8974821136 2.0119052671 2.1243706857 2.232221744 1.6743954455 1.7840462375 1.8974821136 
2.0119052671 2.1243706857 2.232221744 2.3334263672 1.6743954455 1.7840462375 1.8974821136 2.0119052671 2.1243706857 
2.232221744 2.3334263672 2.426721652 1.4671972081 1.3575464161 1.4671972081 1.24411054 1.3575464161 1.4671972081 
1.1296873865 1.24411054 1.3575464161 1.4671972081 1.0172219679 1.1296873865 1.24411054 1.3575464161 1.4671972081 
0.90937090954 1.0172219679 1.1296873865 1.24411054 1.3575464161 1.4671972081 0.80816628637 0.90937090954 1.0172219679 
1.1296873865 1.24411054 1.3575464161 1.4671972081 0.71487100155 0.80816628637 0.90937090954 1.0172219679 1.1296873865 
1.24411054 1.3575464161 1.4671972081 0.60381225391 0.57404952988 0.69302191562 0.54002084522 0.66790778838 0.79216440667 
0.50083690068 0.63877777351 0.77356233629 0.90072551443 0.45538277901 0.60464862014 0.75168694275 0.89058134991 1.0172219679 
0.40226393329 0.56421707518 0.72561863695 0.87851444325 1.0172219679 1.139116835 0.33975332011 0.51573716537 0.69407236469 
0.86392567495 1.0172219679 1.1502619915 1.2630228569 0.26576171152 0.45685295248 0.6552068806 0.84594095064 1.0172219679 
1.1636342747 1.2852923014 1.3852070904 0.22715816343 0.3129712797 0.49462574053 0.49462574053 0.68021497688 0.77059342779 
1.0172219679 1.0172219679 1.0172219679 1.0172219679 2.1243706857 1.5707963268 1.3676273807 1.271087727 1.2156949949 
2.6469669131 2.1243706857 1.7739652728 1.5707963268 1.447813335 1.3676273807 2.8286213739 2.4613776767 2.1243706857 
1.8705049266 1.6937793186 1.5707963268 1.4827341049 2.9144344902 2.6469669131 2.3709992258 2.1243706857 1.9258976586 
1.7739652728 1.6588585487 1.5707963268 1.7563855631 1.8563003522 1.8785697967 1.9779583789 1.9913306621 2.0024758186 
2.1243706857 2.1243706857 2.1243706857 2.1243706857 2.295651703 2.2776669786 2.2630782103 2.2510113037 2.2408671392 
2.486385773 2.4475202889 2.4159740166 2.3899057108 2.3680303173 2.3494282469 2.6847397011 2.6258554882 2.5773755784 
2.5369440334 2.5028148801 2.4736848652 2.448570738 2.8758309421 2.8018393335 2.7393287203 2.6862098746 2.6407557529 
2.6015718084 2.5675431237 2.5377803997 5.8604937156 5.901393709 5.9723133995 5.9473927383 6.0216547488 6.0927478736 
5.9992719463 6.0767621038 6.1501452836 6.2190157008 6.0578962336 6.1383094565 6.2134963469 0 0.064169606361 
6.1241815303 6.206940195 6.2831853072 0.069688960264 0.13304002361 0.19043743361 6.1990255847 0 0.07624511221 
0.14487585072 0.20642320337 0.26153055843 0.3108719077 0 0.084159722458 0.15900377685 0.22528907359 0.28391336087 
0.3357925689 0.38179159818 0.42269159155 5.8604937156 5.9723133995 5.901393709 6.0927478736 6.0216547488 5.9473927383 
6.2190157008 6.1501452836 6.0767621038 5.9992719463 0.064169606361 0 6.2134963469 6.1383094565 6.0578962336 
0.19043743361 0.13304002361 0.069688960264 6.2831853072 6.206940195 6.1241815303 0.3108719077 0.26153055843 0.20642320337 
0.14487585072 0.07624511221 6.2831853072 6.1990255847 0.42269159155 0.38179159818 0.3357925689 0.28391336087 0.22528907359 
0.15900377685 0.084159722458 0 5.6793730533 5.7091357773 5.5901633916 5.743164462 5.6152775188 5.4910209005 
5.7823484065 5.6444075337 5.5096229709 5.3824597928 5.8278025282 5.678536687 5.5314983644 5.3926039573 5.2659633393 
5.8809213739 5.718968232 5.5575666702 5.4046708639 5.2659633393 5.1440684722 5.9434319871 5.7674481418 5.5891129425 
5.4192596322 5.2659633393 5.1329233157 5.0201624502 6.0174235957 5.8263323547 5.6279784266 5.4372443565 5.2659633393 
5.1195510325 4.9978930058 4.8979782167 1.3852070904 1.2852923014 1.2630228569 1.1636342747 1.1502619915 1.139116835 
1.0172219679 1.0172219679 1.0172219679 1.0172219679 0.84594095064 0.86392567495 0.87851444325 0.89058134991 0.90072551443 
0.6552068806 0.69407236469 0.72561863695 0.75168694275 0.77356233629 0.79216440667 0.45685295248 0.51573716537 0.56421707518 
0.60464862014 0.63877777351 0.66790778838 0.69302191562 0.26576171152 0.33975332011 0.40226393329 0.45538277901 0.50083690068 
0.54002084522 0.57404952988 0.60381225391 
_paraPhiHalf 1 1002 double
0 3.1415926536 0 3.1415926536 1.5707963268 1.5707963268 1.5707963268 1.5707963268 2.5880182947 
0.5535743589 2.5880182947 0.5535743589 0 0 0 0 3.1415926536 3.1415926536 
3.1415926536 3.1415926536 3.1415926536 0.17788134 0.38438696014 0.60631181711 0.82323535693 1.0172219679 1.1799687454 
1.3118704726 1.4175000338 1.5022335207 0.17788134 0.38438696014 0.60631181711 0.82323535693 1.0172219679 1.1799687454 
1.3118704726 1.4175000338 1.5022335207 0.093902416448 0.17615329733 0.2478725152 0.31035131605 0.36486382811 0.41257334776 
0.45449736604 0.4915044461 0.52432611754 0.093902416448 0.17615329733 0.2478725152 0.31035131605 0.36486382811 0.41257334776 
0.45449736604 0.4915044461 0.52432611754 2.9637113136 2.7572056934 2.5352808365 2.3183572967 2.1243706857 1.9616239082 
1.829722181 1.7240926197 1.6393591329 2.9637113136 2.7572056934 2.5352808365 2.3183572967 2.1243706857 1.9616239082 
1.829722181 1.7240926197 1.6393591329 3.0476902371 2.9654393563 2.8937201384 2.8312413375 2.7767288255 2.7290193058 
2.6870952876 2.6500882075 2.617266536 3.0476902371 2.9654393563 2.8937201384 2.8312413375 2.7767288255 2.7290193058 
2.6870952876 2.6500882075 2.617266536 0 0 0 0 3.1415926536 3.1415926536 
3.1415926536 3.1415926536 3.1415926536 0.17788134 0.38438696014 0.60631181711 0.82323535693 1.0172219679 1.1799687454 
1.3118704726 1.4175000338 1.5022335207 0.17788134 0.38438696014 0.60631181711 0.82323535693 1.0172219679 1.1799687454 
1.3118704726 1.4175000338 1.5022335207 0.093902416448 0.17615329733 0.2478725152 0.31035131605 0.36486382811 0.41257334776 
0.45449736604 0.4915044461 0.52432611754 0.093902416448 0.17615329733 0.2478725152 0.31035131605 0.36486382811 0.41257334776 
0.45449736604 0.4915044461 0.52432611754 2.9637113136 2.7572056934 2.5352808365 2.3183572967 2.1243706857 1.9616239082 
1.829722181 1.7240926197 1.6393591329 2.9637113136 2.7572056934 2.5352808365 2.3183572967 2.1243706857 1.9616239082 
1.829722181 1.7240926197 1.6393591329 3.0476902371 2.9654393563 2.8937201384 2.8312413375 2.7767288255 2.7290193058 
2.6870952876 2.6500882075 2.617266536 3.0476902371 2.9654393563 2.8937201384 2.8312413375 2.7767288255 2.7290193058 
2.6870952876 2.6500882075 2.617266536 1.5707963268 1.5707963268 1.5707963268 1.5707963268 1.5707963268 1.5707963268 
1.5707963268 1.5707963268 1.5707963268 1.6743954455 1.7840462375 1.8974821136 2.0119052671 2.1243706857 2.232221744 
2.3334263672 2.426721652 2.5115728246 1.4671972081 1.3575464161 1.24411054 1.1296873865 1.0172219679 0.90937090954 
0.80816628637 0.71487100155 0.63001982895 1.6743954455 1.7840462375 1.8974821136 2.0119052671 2.1243706857 2.232221744 
2.3334263672 2.426721652 2.5115728246 1.4671972081 1.3575464161 1.24411054 1.1296873865 1.0172219679 0.90937090954 
0.80816628637 0.71487100155 0.63001982895 1.5707963268 1.5707963268 1.5707963268 1.5707963268 1.5707963268 1.5707963268 
1.5707963268 1.5707963268 1.5707963268 1.6743954455 1.7840462375 1.8974821136 2.0119052671 2.1243706857 2.232221744 
2.3334263672 2.426721652 2.5115728246 1.4671972081 1.3575464161 1.24411054 1.1296873865 1.0172219679 0.90937090954 
0.80816628637 0.71487100155 0.63001982895 1.6743954455 1.7840462375 1.8974821136 2.0119052671 2.1243706857 2.232221744 
2.3334263672 2.426721652 2.5115728246 1.4671972081 1.3575464161 1.24411054 1.1296873865 1.0172219679 0.90937090954 
0.80816628637 0.71487100155 0.63001982895 2.6824132222 2.7864913217 2.8992382033 3.0186096618 3.1415926536 3.0186096618 
2.8992382033 2.7864913217 2.6824132222 0.45917943135 0.35510133185 0.2423544503 0.12298299178 0 0.12298299178 
0.2423544503 0.35510133185 0.45917943135 0.22715816343 0.49462574053 0.3129712797 0.77059342779 0.68021497688 0.49462574053 
1.0172219679 1.0172219679 1.0172219679 1.0172219679 1.2156949949 1.271087727 1.3676273807 1.5707963268 2.1243706857 
1.3676273807 1.447813335 1.5707963268 1.7739652728 2.1243706857 2.6469669131 1.4827341049 1.5707963268 1.6937793186 
1.8705049266 2.1243706857 2.4613776767 2.8286213739 1.5707963268 1.6588585487 1.7739652728 1.9258976586 2.1243706857 
2.3709992258 2.6469669131 2.9144344902 0.26576171152 0.33975332011 0.45685295248 0.40226393329 0.51573716537 0.6552068806 
0.45538277901 0.56421707518 0.69407236469 0.84594095064 0.50083690068 0.60464862014 0.72561863695 0.86392567495 1.0172219679 
0.54002084522 0.63877777351 0.75168694275 0.87851444325 1.0172219679 1.1636342747 0.57404952988 0.66790778838 0.77356233629 
0.89058134991 1.0172219679 1.1502619915 1.2852923014 0.60381225391 0.69302191562 0.79216440667 0.90072551443 1.0172219679 
1.139116835 1.2630228569 1.3852070904 0.71487100155 0.80816628637 0.80816628637 0.90937090954 0.90937090954 0.90937090954 
1.0172219679 1.0172219679 1.0172219679 1.0172219679 1.1296873865 1.1296873865 1.1296873865 1.1296873865 1.1296873865 
1.24411054 1.24411054 1.24411054 1.24411054 1.24411054 1.24411054 1.3575464161 1.3575464161 1.3575464161 
1.3575464161 1.3575464161 1.3575464161 1.3575464161 1.4671972081 1.4671972081 1.4671972081 1.4671972081 1.4671972081 
1.4671972081 1.4671972081 1.4671972081 1.6743954455 1.6743954455 1.7840462375 1.6743954455 1.7840462375 1.8974821136 
1.6743954455 1.7840462375 1.8974821136 2.0119052671 1.6743954455 1.7840462375 1.8974821136 2.0119052671 2.1243706857 
1.6743954455 1.7840462375 1.8974821136 2.0119052671 2.1243706857 2.232221744 1.6743954455 1.7840462375 1.8974821136 
2.0119052671 2.1243706857 2.232221744 2.3334263672 1.6743954455 1.7840462375 1.8974821136 2.0119052671 2.1243706857 
2.232221744 2.3334263672 2.426721652 1.7563855631 1.8785697967 1.8563003522 2.0024758186 1.9913306621 1.9779583789 
2.1243706857 2.1243706857 2.1243706857 2.1243706857 2.2408671392 2.2510113037 2.2630782103 2.2776669786 2.295651703 
2.3494282469 2.3680303173 2.3899057108 2.4159740166 2.4475202889 2.486385773 2.448570738 2.4736848652 2.5028148801 
2.5369440334 2.5773755784 2.6258554882 2.6847397011 2.5377803997 2.5675431237 2.6015718084 2.6407557529 2.6862098746 
2.7393287203 2.8018393335 2.8758309421 2.718901062 2.8307207459 2.7598010554 2.95115522 2.8800620952 2.8058000847 
3.0774230472 3.00855263 2.9351694502 2.8576792927 3.0774230472 3.1415926536 3.0719036933 2.9967168029 2.91630358 
2.95115522 3.00855263 3.0719036933 3.1415926536 3.0653475414 2.9825888767 2.8307207459 2.8800620952 2.9351694502 
2.9967168029 3.0653475414 3.1415926536 3.0574329311 2.718901062 2.7598010554 2.8058000847 2.8576792927 2.91630358 
2.9825888767 3.0574329311 3.1415926536 2.718901062 2.7598010554 2.8307207459 2.8058000847 2.8800620952 2.95115522 
2.8576792927 2.9351694502 3.00855263 3.0774230472 2.91630358 2.9967168029 3.0719036933 3.1415926536 3.0774230472 
2.9825888767 3.0653475414 3.1415926536 3.0719036933 3.00855263 2.95115522 3.0574329311 3.1415926536 3.0653475414 