# vtk DataFile Version 5.1
vtk output
ASCII
DATASET POLYDATA
POINTS 1002 float
-11.6791 -0.293656 -2.71307 -23.7707 -13.3169 -5.27285 -10.8467 -3.43597 4.00096 
-22.6294 -14.319 0.284141 -15.1594 -7.58879 -3.08965 -14.0925 -8.90661 0.345888 
-21.4399 -3.24501 -1.0726 -21.8587 -4.76166 3.24567 -20.1511 -25.2051 -4.82457 
-1.92514 -2.87494 -0.093567 -28.5655 -17.1803 -2.5355 -10.8816 4.09951 2.07036 
-12.6985 -0.95949 -2.79932 -13.8875 -1.7551 -2.93282 -15.2643 -2.73617 -3.0773 
-16.8316 -4.00658 -3.18258 -18.5312 -5.59139 -3.35274 -20.1783 -7.30967 -3.71881 
-21.5487 -8.97048 -4.19325 -22.5539 -10.5439 -4.63057 -23.2594 -12.0132 -4.99357 
-11.4856 -0.726844 -2.92742 -11.306 -1.25142 -3.12174 -11.22 -1.9641 -3.27292 
-11.3088 -2.79444 -3.38943 -11.5658 -3.60105 -3.5356 -11.9655 -4.4563 -3.72796 
-12.5459 -5.36697 -3.80016 -13.3305 -6.15384 -3.61288 -14.248 -6.8384 -3.30247 
-12.4926 -0.266947 -2.52955 -13.4237 -0.284296 -2.34834 -14.4929 -0.400172 -2.18212 
-15.6191 -0.633251 -2.01775 -16.7351 -0.953633 -1.85025 -17.8463 -1.35122 -1.67374 
-18.8968 -1.81353 -1.49615 -19.8292 -2.29755 -1.34641 -20.6723 -2.77626 -1.21586 
-10.5473 0.0394581 -2.76728 -9.26184 0.300659 -2.76379 -7.8371 0.435146 -2.66451 
-6.31175 0.380998 -2.49697 -4.78171 0.124758 -2.32145 -3.49353 -0.249327 -2.10732 
-2.65631 -0.715641 -1.72892 -2.20004 -1.35916 -1.17657 -1.96697 -2.14118 -0.59576 
-11.2218 0.375844 -2.51702 -10.8075 1.0789 -2.25331 -10.4725 1.7353 -1.88327 
-10.2156 2.32463 -1.41165 -10.0571 2.87545 -0.895669 -10.0669 3.3875 -0.377797 
-10.2286 3.84466 0.180675 -10.4458 4.16414 0.81818 -10.6699 4.23781 1.47773 
-23.2823 -13.338 -5.35522 -22.7132 -13.2857 -5.37229 -22.0276 -13.1366 -5.29954 
-21.2612 -12.8293 -5.13464 -20.496 -12.3359 -4.88533 -19.6796 -11.6508 -4.54592 
-18.7129 -10.6958 -4.10983 -17.6179 -9.49818 -3.64031 -16.4262 -8.35948 -3.27306 
-23.9291 -12.4431 -4.99253 -24.0261 -11.4102 -4.66627 -24.0215 -10.2487 -4.30871 
-23.8615 -9.06694 -3.89028 -23.5651 -7.93124 -3.38497 -23.1826 -6.84415 -2.83473 
-22.7254 -5.82443 -2.32151 -22.2501 -4.88026 -1.87852 -21.8259 -4.0103 -1.4737 
-23.8752 -14.6321 -5.54028 -23.8509 -16.1094 -5.74183 -23.6957 -17.7461 -5.9272 
-23.4248 -19.4435 -6.12623 -23.0126 -21.0583 -6.2828 -22.4421 -22.5084 -6.40478 
-21.7749 -23.7448 -6.45344 -21.0979 -24.6584 -6.20115 -20.5157 -25.1415 -5.57986 
-24.3503 -14.0199 -5.32551 -24.9467 -14.7097 -5.31589 -25.5053 -15.4168 -5.24003 
-26.0605 -16.1298 -5.09723 -26.6638 -16.7642 -4.87017 -27.2232 -17.2396 -4.55619 
-27.6826 -17.5199 -4.18053 -28.1005 -17.5951 -3.72372 -28.4325 -17.4725 -3.15553 
-11.9262 -3.99205 3.98263 -13.1549 -4.68928 3.91816 -14.5502 -5.56533 3.77624 
-16.0728 -6.56967 3.48853 -17.6277 -7.68492 3.03471 -19.093 -8.95499 2.42915 
-20.3437 -10.344 1.74386 -21.3245 -11.7458 1.13506 -22.0678 -13.0855 0.670515 
-10.7819 -3.90835 3.7401 -10.7702 -4.45886 3.4807 -10.8671 -5.06795 3.19631 
-11.0681 -5.70513 2.85402 -11.3602 -6.34221 2.4682 -11.7704 -6.93763 2.05628 
-12.283 -7.49131 1.63102 -12.8384 -8.02737 1.21056 -13.4339 -8.51031 0.786153 
-11.5937 -3.33843 4.25656 -12.4888 -3.29179 4.4537 -13.6442 -3.30128 4.53764 
-15.0638 -3.39717 4.55025 -16.5467 -3.59896 4.55655 -17.9269 -3.82819 4.4841 
-19.1615 -4.01991 4.24722 -20.2068 -4.22765 3.91113 -21.0806 -4.48843 3.57064 
-9.75023 -3.19043 3.78847 -8.60013 -2.93301 3.48662 -7.43527 -2.71411 3.13312 
-6.24587 -2.62586 2.77858 -5.04972 -2.64123 2.41313 -3.97032 -2.66593 2.00233 
-3.08493 -2.72227 1.55747 -2.40586 -2.83185 1.07055 -2.00403 -2.904 0.508566 
-10.2294 -2.78614 4.12977 -9.56895 -1.95769 4.15499 -8.98472 -0.925543 4.05556 
-8.62687 0.217201 3.90769 -8.53262 1.32268 3.73475 -8.67241 2.26778 3.48851 
-9.05883 2.99888 3.18472 -9.65387 3.53646 2.85627 -10.3082 3.9042 2.48729 
-22.0893 -14.1836 0.249559 -21.4752 -13.9251 0.228154 -20.7929 -13.5073 0.220556 
-20.0756 -12.916 0.22531 -19.3123 -12.1308 0.229247 -18.43 -11.219 0.245718 
-17.416 -10.3819 0.314968 -16.3174 -9.7454 0.407392 -15.1835 -9.27342 0.430315 
-22.8147 -13.6722 0.592279 -22.9546 -12.9719 0.968418 -23.0712 -12.1309 1.36865 
-23.1855 -11.1397 1.74058 -23.2501 -10.101 2.0796 -23.1823 -9.00224 2.4062 
-22.9722 -7.83189 2.69685 -22.669 -6.72585 2.91926 -22.2944 -5.72615 3.09499 
-22.764 -15.5137 -0.133614 -22.8225 -16.8424 -0.59235 -22.7937 -18.2453 -1.06201 
-22.6383 -19.7377 -1.50571 -22.3596 -21.3289 -1.93173 -21.9925 -22.8379 -2.36529 
-21.5065 -24.043 -2.83329 -20.921 -24.8595 -3.39902 -20.415 -25.2476 -4.09169 
-23.2609 -15.0957 0.0676514 -23.9186 -15.8465 -0.137041 -24.5941 -16.5511 -0.271278 
-25.3285 -17.139 -0.401583 -26.1451 -17.5027 -0.639131 -26.9311 -17.66 -0.917861 
-27.5671 -17.7067 -1.17848 -28.0566 -17.6475 -1.53256 -28.4029 -17.4652 -2.0213 
-14.8603 -7.80255 -2.98208 -14.5006 -8.04702 -2.86464 -14.1713 -8.18215 -2.61166 
-13.9186 -8.27292 -2.24977 -13.7209 -8.50813 -1.89221 -13.6276 -8.77397 -1.51262 
-13.6704 -8.86951 -1.04391 -13.7724 -8.87781 -0.529779 -13.9035 -8.90337 -0.0518782 
-16.7954 -9.09241 -3.16696 -18.1537 -11.2782 -3.61418 -18.9669 -13.7431 -4.32857 
-19.2695 -16.0032 -4.98151 -19.3957 -18.0614 -5.34758 -19.6229 -20.0997 -5.48129 
-19.8256 -21.9564 -5.50946 -19.8364 -23.4295 -5.43075 -19.859 -24.5118 -5.19448 
-13.2279 -6.81028 -3.15154 -11.2934 -6.42084 -3.21065 -9.59135 -5.99999 -3.04128 
-8.04256 -5.4226 -2.66831 -6.52677 -4.96454 -2.27019 -5.1185 -4.65175 -1.8917 
-3.89765 -4.28751 -1.50316 -2.91455 -3.85642 -1.08515 -2.24974 -3.39068 -0.606446 
-15.5165 -9.6169 -0.0855606 -17.0153 -10.8179 -0.647934 -18.3387 -12.6798 -1.31245 
-19.2616 -15.0458 -2.02161 -19.7329 -17.5963 -2.672 -19.8832 -20.0574 -3.17421 
-19.8572 -22.1287 -3.55578 -19.7678 -23.6258 -3.92235 -19.8081 -24.6126 -4.34939 
-12.5823 -8.41496 0.449141 -11.0524 -7.97003 0.502531 -9.53153 -7.47874 0.545491 
-7.96569 -6.98014 0.55534 -6.42287 -6.57648 0.526777 -5.04413 -6.14396 0.487412 
-3.83991 -5.50069 0.39393 -2.8558 -4.70091 0.227385 -2.22024 -3.82819 0.0552563 
-21.6262 -3.11992 -0.678142 -21.757 -3.01543 -0.204629 -21.8757 -2.86426 0.302518 
-22.0255 -2.72459 0.86044 -22.1424 -2.76788 1.47856 -22.1598 -2.98628 2.04847 
-22.1216 -3.29346 2.49152 -22.0759 -3.73269 2.8338 -22.0004 -4.27201 3.08754 
-22.4457 -4.19702 -1.18718 -23.5237 -5.25455 -1.36448 -24.641 -6.36764 -1.61904 
-25.7495 -7.50373 -1.91808 -26.7128 -8.88243 -2.24673 -27.4358 -10.8046 -2.58464 
-27.993 -13.0077 -2.80814 -28.4106 -14.8671 -2.82824 -28.6034 -16.1878 -2.70664 
-20.5593 -2.22266 -0.749769 -19.5725 -1.14436 -0.39622 -18.5099 -0.0525974 -0.021491 
-17.4325 0.980556 0.347567 -16.3616 1.91075 0.676886 -15.2428 2.71664 0.981354 
-14.0742 3.33901 1.30585 -12.9517 3.75505 1.62514 -11.9058 4.00263 1.88254 
-22.9732 -5.6974 2.82938 -24.1614 -6.77583 2.37171 -25.2664 -7.93567 1.86736 
-26.2661 -9.14385 1.34705 -27.1199 -10.4828 0.754455 -27.691 -12.0068 -0.000781685 
-28.0431 -13.5632 -0.798678 -28.3422 -14.9667 -1.46721 -28.5535 -16.1696 -2.02192 
-20.9229 -3.58934 3.59272 -19.9527 -2.32491 3.89674 -18.8835 -1.01114 4.04068 
-17.6597 0.30059 4.02799 -16.3275 1.55604 3.95157 -14.9761 2.59881 3.80076 
-13.7262 3.25605 3.49244 -12.6624 3.60535 3.03809 -11.7378 3.86255 2.53802 
-20.9638 -25.5988 -4.8214 -22.1334 -25.5104 -4.70804 -23.367 -24.9028 -4.47034 
-24.4738 -24.0398 -4.13486 -25.4851 -23.0781 -3.75607 -26.419 -21.9507 -3.41728 
-27.2261 -20.7367 -3.16932 -27.8717 -19.5404 -2.96254 -28.3243 -18.3437 -2.74549 
-1.81554 -1.82798 0.132187 -1.94747 -0.67118 0.340453 -2.43861 0.38003 0.495231 
-3.34191 1.2703 0.606511 -4.47186 2.15478 0.741958 -5.62394 3.04588 0.980908 
-6.85294 3.74173 1.31569 -8.23617 4.11048 1.63891 -9.63682 4.1917 1.88211 
-12.6173 -1.4436 -3.04266 -12.5934 -2.07078 -3.26485 -13.9538 -2.33433 -3.18613 
-12.6896 -2.90264 -3.39845 -14.1233 -3.09977 -3.3942 -15.5223 -3.47188 -3.29086 
-12.9301 -3.76634 -3.45409 -14.4117 -4.0306 -3.46367 -15.9183 -4.4076 -3.462 
-17.3048 -4.969 -3.37486 -13.321 -4.58625 -3.56479 -14.8439 -4.96875 -3.4493 
-16.4256 -5.49592 -3.52837 -17.8886 -6.11853 -3.60392 -19.1299 -6.77311 -3.62745 
-13.9111 -5.51944 -3.71985 -15.4752 -5.98587 -3.53507 -17.0636 -6.69209 -3.56791 
-18.4934 -7.43355 -3.81252 -19.7064 -8.0903 -3.99568 -20.7162 -8.60834 -4.09814 
-14.6984 -6.50792 -3.69439 -16.2407 -7.16974 -3.67739 -17.7729 -8.03337 -3.72659 
-19.0701 -8.87742 -4.00305 -20.1455 -9.53464 -4.33955 -21.0981 -9.99298 -4.53341 
-21.9049 -10.3162 -4.61082 -15.582 -7.42679 -3.46621 -16.9793 -8.36481 -3.69431 
-18.3433 -9.4142 -3.94815 -19.4939 -10.3267 -4.25638 -20.414 -11.0033 -4.60739 
-21.2668 -11.4462 -4.88264 -22.0648 -11.7207 -5.01644 -22.7241 -11.9037 -5.03932 
-10.2302 -0.446168 -2.95421 -8.83165 -0.294283 -2.90631 -9.94455 -1.07043 -3.10378 
-7.33657 -0.306177 -2.77411 -8.47886 -1.05276 -3.03626 -9.80491 -1.86343 -3.24195 
-5.80161 -0.483384 -2.60376 -6.98187 -1.18824 -2.91518 -8.31511 -1.90198 -3.18927 
-9.90886 -2.71119 -3.3935 -4.40043 -0.817102 -2.41112 -5.56797 -1.46149 -2.73092 
-6.8825 -2.10038 -3.05254 -8.4828 -2.79469 -3.31077 -10.2546 -3.61787 -3.56121 
-3.38876 -1.29939 -2.10847 -4.43595 -1.91148 -2.44228 -5.69285 -2.49804 -2.79259 
-7.22535 -3.09269 -3.08085 -9.00799 -3.84045 -3.37418 -10.7788 -4.63326 -3.68298 
-2.78546 -1.93521 -1.64449 -3.68078 -2.52546 -2.02318 -4.83828 -3.08492 -2.40493 
-6.26989 -3.58358 -2.75128 -7.96089 -4.18407 -3.05429 -9.70356 -4.91133 -3.39666 
-11.4497 -5.53203 -3.62767 -2.42261 -2.67734 -1.112 -3.19857 -3.20472 -1.54587 
-4.26184 -3.71643 -1.94441 -5.58388 -4.14623 -2.33796 -7.13862 -4.57438 -2.69466 
-8.77992 -5.17176 -3.05205 -10.4454 -5.7564 -3.3407 -12.2799 -6.19811 -3.3966 
-2.69242 -4.35029 -0.475923 -3.52484 -5.24554 -0.33222 -3.56636 -4.78444 -0.983738 
-4.66171 -6.03722 -0.203579 -4.57106 -5.64033 -0.884749 -4.74236 -5.12231 -1.42336 
-5.96458 -6.60733 -0.125756 -5.77159 -6.37866 -0.810692 -5.83706 -5.88822 -1.35495 
-6.09754 -5.38022 -1.81067 -7.45705 -7.03939 -0.0612224 -7.12979 -6.99962 -0.761826 
[...]
POINT_DATA 1002
FIELD FieldData 4
_paraPhi 1 1002 double
6.2831853072 3.1415926536 6.2831853072 3.1415926536 4.7123889804 4.7123889804 1.5707963268 1.5707963268 3.6951670125 
5.7296109483 2.5880182947 0.5535743589 6.2831853072 6.2831853072 6.2831853072 6.2831853072 3.1415926536 3.1415926536 
3.1415926536 3.1415926536 3.1415926536 6.1053039672 5.898798347 5.6768734901 5.4599499503 5.2659633393 5.1032165617 
4.9713148346 4.8656852733 4.7809517865 0.17788134 0.38438696014 0.60631181711 0.82323535693 1.0172219679 1.1799687454 
1.3118704726 1.4175000338 1.5022335207 6.1892828907 6.1070320098 6.035312792 5.9728339911 5.9183214791 5.8706119594 
5.8286879411 5.7916808611 5.7588591896 0.093902416448 0.17615329733 0.2478725152 0.31035131605 0.36486382811 0.41257334776 
0.45449736604 0.4915044461 0.52432611754 3.3194739936 3.5259796137 3.7479044707 3.9648280105 4.1588146215 4.321561399 
4.4534631262 4.5590926874 4.6438261743 2.9637113136 2.7572056934 2.5352808365 2.3183572967 2.1243706857 1.9616239082 
1.829722181 1.7240926197 1.6393591329 3.23549507 3.3177459509 3.3894651688 3.4519439696 3.5064564817 3.5541660013 
3.5960900196 3.6330970997 3.6659187711 3.0476902371 2.9654393563 2.8937201384 2.8312413375 2.7767288255 2.7290193058 
2.6870952876 2.6500882075 2.617266536 6.2831853072 6.2831853072 6.2831853072 6.2831853072 3.1415926536 3.1415926536 
3.1415926536 3.1415926536 3.1415926536 6.1053039672 5.898798347 5.6768734901 5.4599499503 5.2659633393 5.1032165617 
4.9713148346 4.8656852733 4.7809517865 0.17788134 0.38438696014 0.60631181711 0.82323535693 1.0172219679 1.1799687454 
1.3118704726 1.4175000338 1.5022335207 6.1892828907 6.1070320098 6.035312792 5.9728339911 5.9183214791 5.8706119594 
5.8286879411 5.7916808611 5.7588591896 0.093902416448 0.17615329733 0.2478725152 0.31035131605 0.36486382811 0.41257334776 
0.45449736604 0.4915044461 0.52432611754 3.3194739936 3.5259796137 3.7479044707 3.9648280105 4.1588146215 4.321561399 
4.4534631262 4.5590926874 4.6438261743 2.9637113136 2.7572056934 2.5352808365 2.3183572967 2.1243706857 1.9616239082 
1.829722181 1.7240926197 1.6393591329 3.23549507 3.3177459509 3.3894651688 3.4519439696 3.5064564817 3.5541660013 
3.5960900196 3.6330970997 3.6659187711 3.0476902371 2.9654393563 2.8937201384 2.8312413375 2.7767288255 2.7290193058 
2.6870952876 2.6500882075 2.617266536 4.7123889804 4.7123889804 4.7123889804 4.7123889804 4.7123889804 4.7123889804 
4.7123889804 4.7123889804 4.7123889804 4.6087898617 4.4991390697 4.3857031936 4.2712800401 4.1588146215 4.0509635631 
3.94975894 3.8564636551 3.7716124825 4.8159880991 4.9256388911 5.0390747672 5.1534979207 5.2659633393 5.3738143976 
5.4750190208 5.5683143056 5.6531654782 4.6087898617 4.4991390697 4.3857031936 4.2712800401 4.1588146215 4.0509635631 
3.94975894 3.8564636551 3.7716124825 4.8159880991 4.9256388911 5.0390747672 5.1534979207 5.2659633393 5.3738143976 
5.4750190208 5.5683143056 5.6531654782 1.5707963268 1.5707963268 1.5707963268 1.5707963268 1.5707963268 1.5707963268 
1.5707963268 1.5707963268 1.5707963268 1.6743954455 1.7840462375 1.8974821136 2.0119052671 2.1243706857 2.232221744 
2.3334263672 2.426721652 2.5115728246 1.4671972081 1.3575464161 1.24411054 1.1296873865 1.0172219679 0.90937090954 
0.80816628637 0.71487100155 0.63001982895 1.6743954455 1.7840462375 1.8974821136 2.0119052671 2.1243706857 2.232221744 
2.3334263672 2.426721652 2.5115728246 1.4671972081 1.3575464161 1.24411054 1.1296873865 1.0172219679 0.90937090954 
0.80816628637 0.71487100155 0.63001982895 3.6007720849 3.4966939854 3.3839471039 3.2645756454 3.1415926536 3.0186096618 
2.8992382033 2.7864913217 2.6824132222 5.8240058758 5.9280839753 6.0408308569 6.1602023154 6.2831853072 0.12298299178 
0.2423544503 0.35510133185 0.45917943135 6.0560271438 5.7885595667 5.9702140275 5.5125918794 5.6029703303 5.7885595667 
5.2659633393 5.2659633393 5.2659633393 5.2659633393 5.0674903122 5.0120975802 4.9155579264 4.7123889804 4.1588146215 
4.9155579264 4.8353719722 4.7123889804 4.5092200343 4.1588146215 3.6362183941 4.8004512023 4.7123889804 4.5894059886 
4.4126803806 4.1588146215 3.8218076305 3.4545639333 4.7123889804 4.6243267584 4.5092200343 4.3572876485 4.1588146215 
3.9121860814 3.6362183941 3.368750817 6.0174235957 5.9434319871 5.8263323547 5.8809213739 5.7674481418 5.6279784266 
5.8278025282 5.718968232 5.5891129425 5.4372443565 5.7823484065 5.678536687 5.5575666702 5.4192596322 5.2659633393 
5.743164462 5.6444075337 5.5314983644 5.4046708639 5.2659633393 5.1195510325 5.7091357773 5.6152775188 5.5096229709 
5.3926039573 5.2659633393 5.1329233157 4.9978930058 5.6793730533 5.5901633916 5.4910209005 5.3824597928 5.2659633393 
5.1440684722 5.0201624502 4.8979782167 5.5683143056 5.4750190208 5.4750190208 5.3738143976 5.3738143976 5.3738143976 
5.2659633393 5.2659633393 5.2659633393 5.2659633393 5.1534979207 5.1534979207 5.1534979207 5.1534979207 5.1534979207 
5.0390747672 5.0390747672 5.0390747672 5.0390747672 5.0390747672 5.0390747672 4.9256388911 4.9256388911 4.9256388911 
4.9256388911 4.9256388911 4.9256388911 4.9256388911 4.8159880991 4.8159880991 4.8159880991 4.8159880991 4.8159880991 
4.8159880991 4.8159880991 4.8159880991 4.6087898617 4.6087898617 4.4991390697 4.6087898617 4.4991390697 4.3857031936 
4.6087898617 4.4991390697 4.3857031936 4.2712800401 4.6087898617 4.4991390697 4.3857031936 4.2712800401 4.1588146215 
4.6087898617 4.4991390697 4.3857031936 4.2712800401 4.1588146215 4.0509635631 4.6087898617 4.4991390697 4.3857031936 
4.2712800401 4.1588146215 4.0509635631 3.94975894 4.6087898617 4.4991390697 4.3857031936 4.2712800401 4.1588146215 
4.0509635631 3.94975894 3.8564636551 4.526799744 4.4046155105 4.426884955 4.2807094886 4.2918546451 4.3052269283 
4.1588146215 4.1588146215 4.1588146215 4.1588146215 4.042318168 4.0321740035 4.0201070968 4.0055183285 3.9875336042 
3.9337570603 3.9151549899 3.8932795963 3.8672112905 3.8356650183 3.7967995342 3.8346145692 3.809500442 3.7803704271 
3.7462412737 3.7058097288 3.657329819 3.5984456061 3.7454049075 3.7156421835 3.6816134988 3.6424295543 3.5969754326 
3.5438565869 3.4813459737 3.4073543651 3.5642842451 3.4524645613 3.5233842518 3.3320300872 3.403123212 3.4773852225 
3.20576226 3.2746326772 3.348015857 3.4255060145 3.0774230472 3.1415926536 3.2112816139 3.2864685043 3.3668817272 
2.95115522 3.00855263 3.0719036933 3.1415926536 3.2178377658 3.3005964304 2.8307207459 2.8800620952 2.9351694502 
2.9967168029 3.0653475414 3.1415926536 3.225752376 2.718901062 2.7598010554 2.8058000847 2.8576792927 2.91630358 
2.9825888767 3.0574329311 3.1415926536 3.5642842451 3.5233842518 3.4524645613 3.4773852225 3.403123212 3.3320300872 
3.4255060145 3.348015857 3.2746326772 3.20576226 3.3668817272 3.2864685043 3.2112816139 3.1415926536 3.0774230472 
3.3005964304 3.2178377658 3.1415926536 3.0719036933 3.00855263 2.95115522 3.225752376 3.1415926536 3.0653475414 
2.9967168029 2.9351694502 2.8800620952 2.8307207459 3.1415926536 3.0574329311 2.9825888767 2.91630358 2.8576792927 
2.8058000847 2.7598010554 2.718901062 4.526799744 4.426884955 4.4046155105 4.3052269283 4.2918546451 4.2807094886 
4.1588146215 4.1588146215 4.1588146215 4.1588146215 3.9875336042 4.0055183285 4.0201070968 4.0321740035 4.042318168 
3.7967995342 3.8356650183 3.8672112905 3.8932795963 3.9151549899 3.9337570603 3.5984456061 3.657329819 3.7058097288 
3.7462412737 3.7803704271 3.809500442 3.8346145692 3.4073543651 3.4813459737 3.5438565869 3.5969754326 3.6424295543 
3.6816134988 3.7156421835 3.7454049075 4.7123889804 4.8004512023 4.6243267584 4.9155579264 4.7123889804 4.5092200343 
5.0674903122 4.8353719722 4.5894059886 4.3572876485 5.2659633393 5.0120975802 4.7123889804 4.4126803806 4.1588146215 
5.5125918794 5.2659633393 4.9155579264 4.5092200343 4.1588146215 3.9121860814 5.7885595667 5.6029703303 5.2659633393 
4.7123889804 4.1588146215 3.8218076305 3.6362183941 6.0560271438 5.9702140275 5.7885595667 5.2659633393 4.1588146215 
3.6362183941 3.4545639333 3.368750817 0.22715816343 0.49462574053 0.3129712797 0.77059342779 0.68021497688 0.49462574053 
1.0172219679 1.0172219679 1.0172219679 1.0172219679 1.2156949949 1.271087727 1.3676273807 1.5707963268 2.1243706857 
1.3676273807 1.447813335 1.5707963268 1.7739652728 2.1243706857 2.6469669131 1.4827341049 1.5707963268 1.6937793186 
1.8705049266 2.1243706857 2.4613776767 2.8286213739 1.5707963268 1.6588585487 1.7739652728 1.9258976586 2.1243706857 
2.3709992258 2.6469669131 2.9144344902 1.7563855631 1.8785697967 1.8563003522 2.0024758186 1.9913306621 1.9779583789 
2.1243706857 2.1243706857 2.1243706857 2.1243706857 2.2408671392 2.2510113037 2.2630782103 2.2776669786 2.295651703 
2.3494282469 2.3680303173 2.3899057108 2.4159740166 2.4475202889 2.486385773 2.448570738 2.4736848652 2.5028148801 
2.5369440334 2.5773755784 2.6258554882 2.6847397011 2.5377803997 2.5675431237 2.6015718084 2.6407557529 2.6862098746 
2.7393287203 2.8018393335 2.8758309421 1.6743954455 1.6743954455 1.7840462375 1.6743954455 1.7840462375 1.8974821136 
1.6743954455 1.7840462375 1.8974821136 2.0119052671 1.6743954455 1.7840462375 1.8974821136 2.0119052671 2.1243706857 
1.6743954455 1.7840462375 1.8974821136 2.0119052671 2.1243706857 2.232221744 1.6743954455 1.7840462375 1.8974821136 
2.0119052671 2.1243706857 2.232221744 2.3334263672 1.6743954455 1.7840462375 1.8974821136 2.0119052671 2.1243706857 
2.232221744 2.3334263672 2.426721652 1.4671972081 1.3575464161 1.4671972081 1.24411054 1.3575464161 1.4671972081 
1.1296873865 1.24411054 1.3575464161 1.4671972081 1.0172219679 1.1296873865 1.24411054 1.3575464161 1.4671972081 
0.90937090954 1.0172219679 1.1296873865 1.24411054 1.3575464161 1.4671972081 0.80816628637 0.90937090954 1.0172219679 
1.1296873865 1.24411054 1.3575464161 1.4671972081 0.71487100155 0.80816628637 0.90937090954 1.0172219679 1.1296873865 
1.24411054 1.3575464161 1.4671972081 0.60381225391 0.57404952988 0.69302191562 0.54002084522 0.66790778838 0.79216440667 
0.50083690068 0.63877777351 0.77356233629 0.90072551443 0.45538277901 0.60464862014 0.75168694275 0.89058134991 1.0172219679 
0.40226393329 0.56421707518 0.72561863695 0.87851444325 1.0172219679 1.139116835 0.33975332011 0.51573716537 0.69407236469 
0.86392567495 1.0172219679 1.1502619915 1.2630228569 0.26576171152 0.45685295248 0.6552068806 0.84594095064 1.0172219679 
1.1636342747 1.2852923014 1.3852070904 0.22715816343 0.3129712797 0.49462574053 0.49462574053 0.68021497688 0.77059342779 
1.0172219679 1.0172219679 1.0172219679 1.0172219679 2.1243706857 1.5707963268 1.3676273807 1.271087727 1.2156949949 
2.6469669131 2.1243706857 1.7739652728 1.5707963268 1.447813335 1.3676273807 2.8286213739 2.4613776767 2.1243706857 
1.8705049266 1.6937793186 1.5707963268 1.4827341049 2.9144344902 2.6469669131 2.3709992258 2.1243706857 1.9258976586 
1.7739652728 1.6588585487 1.5707963268 1.7563855631 1.8563003522 1.8785697967 1.9779583789 1.9913306621 2.0024758186 
2.1243706857 2.1243706857 2.1243706857 2.1243706857 2.295651703 2.2776669786 2.2630782103 2.2510113037 2.2408671392 
2.486385773 2.4475202889 2.4159740166 2.3899057108 2.3680303173 2.3494282469 2.6847397011 2.6258554882 2.5773755784 
2.5369440334 2.5028148801 2.4736848652 2.448570738 2.8758309421 2.8018393335 2.7393287203 2.6862098746 2.6407557529 
2.6015718084 2.5675431237 2.5377803997 5.8604937156 5.901393709 5.9723133995 5.9473927383 6.0216547488 6.0927478736 
5.9992719463 6.0767621038 6.1501452836 6.2190157008 6.0578962336 6.1383094565 6.2134963469 0 0.064169606361 
6.1241815303 6.206940195 6.2831853072 0.069688960264 0.13304002361 0.19043743361 6.1990255847 0 0.07624511221 
0.14487585072 0.20642320337 0.26153055843 0.3108719077 0 0.084159722458 0.15900377685 0.22528907359 0.28391336087 
0.3357925689 0.38179159818 0.42269159155 5.8604937156 5.9723133995 5.901393709 6.0927478736 6.0216547488 5.9473927383 
6.2190157008 6.1501452836 6.0767621038 5.9992719463 0.064169606361 0 6.2134963469 6.1383094565 6.0578962336 
0.19043743361 0.13304002361 0.069688960264 6.2831853072 6.206940195 6.1241815303 0.3108719077 0.26153055843 0.20642320337 
0.14487585072 0.07624511221 6.2831853072 6.1990255847 0.42269159155 0.38179159818 0.3357925689 0.28391336087 0.22528907359 
0.15900377685 0.084159722458 0 5.6793730533 5.7091357773 5.5901633916 5.743164462 5.6152775188 5.4910209005 
5.7823484065 5.6444075337 5.5096229709 5.3824597928 5.8278025282 5.678536687 5.5314983644 5.3926039573 5.2659633393 
5.8809213739 5.718968232 5.5575666702 5.4046708639 5.2659633393 5.1440684722 5.9434319871 5.7674481418 5.5891129425 
5.4192596322 5.2659633393 5.1329233157 5.0201624502 6.0174235957 5.8263323547 5.6279784266 5.4372443565 5.2659633393 
5.1195510325 4.9978930058 4.8979782167 1.3852070904 1.2852923014 1.2630228569 1.1636342747 1.1502619915 1.139116835 
1.0172219679 1.0172219679 1.0172219679 1.0172219679 0.84594095064 0.86392567495 0.87851444325 0.89058134991 0.90072551443 
0.6552068806 0.69407236469 0.72561863695 0.75168694275 0.77356233629 0.79216440667 0.45685295248 0.51573716537 0.56421707518 
0.60464862014 0.63877777351 0.66790778838 0.69302191562 0.26576171152 0.33975332011 0.40226393329 0.45538277901 0.50083690068 
0.54002084522 0.57404952988 0.60381225391 
_paraPhiHalf 1 1002 double
0 3.1415926536 0 3.1415926536 1.5707963268 1.5707963268 1.5707963268 1.5707963268 2.5880182947 
0.5535743589 2.5880182947 0.5535743589 0 0 0 0 3.1415926536 3.1415926536 
3.1415926536 3.1415926536 3.1415926536 0.17788134 0.38438696014 0.60631181711 0.82323535693 1.0172219679 1.1799687454 
1.3118704726 1.4175000338 1.5022335207 0.17788134 0.38438696014 0.60631181711 0.82323535693 1.0172219679 1.1799687454 
1.3118704726 1.4175000338 1.5022335207 0.093902416448 0.17615329733 0.2478725152 0.31035131605 0.36486382811 0.41257334776 
0.45449736604 0.4915044461 0.52432611754 0.093902416448 0.17615329733 0.2478725152 0.31035131605 0.36486382811 0.41257334776 
0.45449736604 0.4915044461 0.52432611754 2.9637113136 2.7572056934 2.5352808365 2.3183572967 2.1243706857 1.9616239082 
1.829722181 1.7240926197 1.6393591329 2.9637113136 2.7572056934 2.5352808365 2.3183572967 2.1243706857 1.9616239082 
1.829722181 1.7240926197 1.6393591329 3.0476902371 2.9654393563 2.8937201384 2.8312413375 2.7767288255 2.7290193058 
2.6870952876 2.6500882075 2.617266536 3.0476902371 2.9654393563 2.8937201384 2.8312413375 2.7767288255 2.7290193058 
2.6870952876 2.6500882075 2.617266536 0 0 0 0 3.1415926536 3.1415926536 
3.1415926536 3.1415926536 3.1415926536 0.17788134 0.38438696014 0.60631181711 0.82323535693 1.0172219679 1.1799687454 
1.3118704726 1.4175000338 1.5022335207 0.17788134 0.38438696014 0.60631181711 0.82323535693 1.0172219679 1.1799687454 
1.3118704726 1.4175000338 1.5022335207 0.093902416448 0.17615329733 0.2478725152 0.31035131605 0.36486382811 0.41257334776 
0.45449736604 0.4915044461 0.52432611754 0.093902416448 0.17615329733 0.2478725152 0.31035131605 0.36486382811 0.41257334776 
0.45449736604 0.4915044461 0.52432611754 2.9637113136 2.7572056934 2.5352808365 2.3183572967 2.1243706857 1.9616239082 
1.829722181 1.7240926197 1.6393591329 2.9637113136 2.7572056934 2.5352808365 2.3183572967 2.1243706857 1.9616239082 
1.829722181 1.7240926197 1.6393591329 3.0476902371 2.9654393563 2.8937201384 2.8312413375 2.7767288255 2.7290193058 
2.6870952876 2.6500882075 2.617266536 3.0476902371 2.9654393563 2.8937201384 2.8312413375 2.7767288255 2.7290193058 
2.6870952876 2.6500882075 2.617266536 1.5707963268 1.5707963268 1.5707963268 1.5707963268 1.5707963268 1.5707963268 
1.5707963268 1.5707963268 1.5707963268 1.6743954455 1.7840462375 1.8974821136 2.0119052671 2.1243706857 2.232221744 
2.3334263672 2.426721652 2.5115728246 1.4671972081 1.3575464161 1.24411054 1.1296873865 1.0172219679 0.90937090954 
0.80816628637 0.71487100155 0.63001982895 1.6743954455 1.7840462375 1.8974821136 2.0119052671 2.1243706857 2.232221744 
2.3334263672 2.426721652 2.5115728246 1.4671972081 1.3575464161 1.24411054 1.1296873865 1.0172219679 0.90937090954 
0.80816628637 0.71487100155 0.63001982895 1.5707963268 1.5707963268 1.5707963268 1.5707963268 1.5707963268 1.5707963268 
1.5707963268 1.5707963268 1.5707963268 1.6743954455 1.7840462375 1.8974821136 2.0119052671 2.1243706857 2.232221744 
2.3334263672 2.426721652 2.5115728246 1.4671972081 1.3575464161 1.24411054 1.1296873865 1.0172219679 0.90937090954 
0.80816628637 0.71487100155 0.63001982895 1.6743954455 1.7840462375 1.8974821136 2.0119052671 2.1243706857 2.232221744 
2.3334263672 2.426721652 2.5115728246 1.4671972081 1.3575464161 1.24411054 1.1296873865 1.0172219679 0.90937090954 
0.80816628637 0.71487100155 0.63001982895 2.6824132222 2.7864913217 2.8992382033 3.0186096618 3.1415926536 3.0186096618 
2.8992382033 2.7864913217 2.6824132222 0.45917943135 0.35510133185 0.2423544503 0.12298299178 0 0.12298299178 
0.2423544503 0.35510133185 0.45917943135 0.22715816343 0.49462574053 0.3129712797 0.77059342779 0.68021497688 0.49462574053 
1.0172219679 1.0172219679 1.0172219679 1.0172219679 1.2156949949 1.271087727 1.3676273807 1.5707963268 2.1243706857 
1.3676273807 1.447813335 1.5707963268 1.7739652728 2.1243706857 2.6469669131 1.4827341049 1.5707963268 1.6937793186 
1.8705049266 2.1243706857 2.4613776767 2.8286213739 1.5707963268 1.6588585487 1.7739652728 1.9258976586 2.1243706857 
2.3709992258 2.6469669131 2.9144344902 0.26576171152 0.33975332011 0.45685295248 0.40226393329 0.51573716537 0.6552068806 
0.45538277901 0.56421707518 0.69407236469 0.84594095064 0.50083690068 0.60464862014 0.72561863695 0.86392567495 1.0172219679 
0.54002084522 0.63877777351 0.75168694275 0.87851444325 1.0172219679 1.1636342747 0.57404952988 0.66790778838 0.77356233629 
0.89058134991 1.0172219679 1.1502619915 1.2852923014 0.60381225391 0.69302191562 0.79216440667 0.90072551443 1.0172219679 
1.139116835 1.2630228569 1.3852070904 0.71487100155 0.80816628637 0.80816628637 0.90937090954 0.90937090954 0.90937090954 
1.0172219679 1.0172219679 1.0172219679 1.0172219679 1.1296873865 1.1296873865 1.1296873865 1.1296873865 1.1296873865 
1.24411054 1.24411054 1.24411054 1.24411054 1.24411054 1.24411054 1.3575464161 1.3575464161 1.3575464161 
1.3575464161 1.3575464161 1.3575464161 1.3575464161 1.4671972081 1.4671972081 1.4671972081 1.4671972081 1.4671972081 
1.4671972081 1.4671972081 1.4671972081 1.6743954455 1.6743954455 1.7840462375 1.6743954455 1.7840462375 1.8974821136 
1.6743954455 1.7840462375 1.8974821136 2.0119052671 1.6743954455 1.7840462375 1.8974821136 2.0119052671 2.1243706857 
1.6743954455 1.7840462375 1.8974821136 2.0119052671 2.1243706857 2.232221744 1.6743954455 1.7840462375 1.8974821136 
2.0119052671 2.1243706857 2.232221744 2.3334263672 1.6743954455 1.7840462375 1.8974821136 2.0119052671 2.1243706857 
2.232221744 2.3334263672 2.426721652 1.7563855631 1.8785697967 1.8563003522 2.0024758186 1.9913306621 1.9779583789 
2.1243706857 2.1243706857 2.1243706857 2.1243706857 2.2408671392 2.2510113037 2.2630782103 2.2776669786 2.295651703 
2.3494282469 2.3680303173 2.3899057108 2.4159740166 2.4475202889 2.486385773 2.448570738 2.4736848652 2.5028148801 
2.5369440334 2.5773755784 2.6258554882 2.6847397011 2.5377803997 2.5675431237 2.6015718084 2.6407557529 2.6862098746 
2.7393287203 2.8018393335 2.8758309421 2.718901062 2.8307207459 2.7598010554 2.95115522 2.8800620952 2.8058000847 
3.0774230472 3.00855263 2.9351694502 2.8576792927 3.0774230472 3.1415926536 3.0719036933 2.9967168029 2.91630358 
2.95115522 3.00855263 3.0719036933 3.1415926536 3.0653475414 2.9825888767 2.8307207459 2.8800620952 2.9351694502 
2.9967168029 3.0653475414 3.1415926536 3.0574329311 2.718901062 2.7598010554 2.8058000847 2.8576792927 2.91630358 
2.9825888767 3.0574329311 3.1415926536 2.718901062 2.7598010554 2.8307207459 2.8058000847 2.8800620952 2.95115522 
2.8576792927 2.9351694502 3.00855263 3.0774230472 2.91630358 2.9967168029 3.0719036933 3.1415926536 3.0774230472 
2.9825888767 3.0653475414 3.1415926536 3.0719036933 3.00855263 2.95115522 3.0574329311 3.1415926536 3.0653475414 