# vtk DataFile Version 5.1
vtk output
ASCII
DATASET POLYDATA
POINTS 100 float
-3.87006 4.00947 1.2161 -3.87709 4.00664 1.21404 -3.89846 3.99592 1.2116 
-3.93424 3.97638 1.20928 -3.98443 3.94662 1.20782 -4.04891 3.90493 1.20805 
-4.12732 3.8495 1.21068 -4.21904 3.77862 1.2162 -4.32319 3.69094 1.22477 
-4.43873 3.5856 1.23618 -4.56454 3.46239 1.24988 -4.69961 3.3218 1.26511 
-4.84316 3.165 1.28099 -4.99475 2.99379 1.29671 -5.15435 2.81037 1.31167 
-5.32229 2.61721 1.32553 -5.49915 2.41678 1.33826 -5.68563 2.21135 1.35014 
-5.88228 2.0028 1.36161 -6.08943 1.7925 1.3732 -6.30697 1.58125 1.38537 
-6.53439 1.3693 1.39839 -6.77079 1.15644 1.41226 -7.015 0.942111 1.42671 
-7.26582 0.725573 1.44122 -7.52219 0.506036 1.45508 -7.78335 0.282768 1.46754 
-8.04895 0.055166 1.47785 -8.31903 -0.177239 1.48544 -8.59399 -0.414812 1.48993 
-8.87431 -0.657884 1.49117 -9.16044 -0.906817 1.48922 -9.45254 -1.16207 1.48431 
-9.75035 -1.4242 1.47679 -10.0531 -1.69386 1.46705 -10.3598 -1.97173 1.45552 
-10.669 -2.25839 1.44258 -10.9795 -2.55423 1.42862 -11.2902 -2.85934 1.41403 
-11.6006 -3.17349 1.39922 -11.9111 -3.4961 1.38461 -12.2224 -3.82637 1.37059 
-12.5362 -4.16341 1.35753 -12.8543 -4.50644 1.34564 -13.1783 -4.85497 1.33489 
-13.5096 -5.20903 1.32497 -13.8488 -5.56922 1.31517 -14.1954 -5.93677 1.30442 
-14.5477 -6.31343 1.29134 -14.9032 -6.70127 1.2743 -15.2583 -7.10239 1.25166 
-15.609 -7.51866 1.22189 -15.9512 -7.95138 1.18379 -16.2813 -8.40102 1.13667 
-16.5959 -8.86714 1.08044 -16.8927 -9.34829 1.01561 -17.1704 -9.84218 0.943273 
-17.4281 -10.3459 0.864971 -17.666 -10.8562 0.782475 -17.8844 -11.3699 0.697597 
-18.084 -11.8841 0.611973 -18.2655 -12.3967 0.526903 -18.4294 -12.9062 0.443242 
-18.5763 -13.4121 0.36138 -18.7067 -13.9147 0.281285 -18.8213 -14.4148 0.20262 
-18.9208 -14.9136 0.124885 -19.0064 -15.4124 0.0475796 -19.0795 -15.9122 -0.0296558 
-19.1417 -16.4136 -0.106939 -19.1948 -16.9168 -0.184092 -19.2404 -17.4209 -0.260649 
-19.2802 -17.9246 -0.335899 -19.3152 -18.426 -0.40897 -19.3463 -18.9226 -0.478921 
-19.374 -19.4114 -0.544831 -19.3986 -19.8895 -0.605868 -19.4203 -20.3537 -0.661338 
-19.4394 -20.8009 -0.7107 -19.4567 -21.2285 -0.75357 -19.4731 -21.6339 -0.789708 
-19.4899 -22.015 -0.81901 -19.5088 -22.3704 -0.841502 -19.5312 -22.699 -0.857344 
-19.5585 -23.0004 -0.866843 -19.5912 -23.2747 -0.870468 -19.6296 -23.5227 -0.868853 
-19.6729 -23.7455 -0.862796 -19.7197 -23.9446 -0.853223 -19.7679 -24.1218 -0.841144 
-19.8153 -24.2786 -0.827583 -19.8597 -24.4167 -0.813509 -19.8993 -24.5374 -0.799762 
-19.9327 -24.6417 -0.787006 -19.9593 -24.7301 -0.7757 -19.9793 -24.8028 -0.766103 
-19.9933 -24.8597 -0.75831 -20.0022 -24.9005 -0.752304 -20.007 -24.9251 -0.748019 
-20.0083 -24.9331 -0.745398 
LINES 2 100
OFFSETS vtktypeint64
0 100 
CONNECTIVITY vtktypeint64
0 1 2 3 4 5 6 7 8 
9 10 11 12 13 14 15 16 17 
18 19 20 21 22 23 24 25 26 
27 28 29 30 31 32 33 34 35 
36 37 38 39 40 41 42 43 44 
45 46 47 48 49 50 51 52 53 
54 55 56 57 58 59 60 61 62 
63 64 65 66 67 68 69 70 71 
72 73 74 75 76 77 78 79 80 
81 82 83 84 85 86 87 88 89 
90 91 92 93 94 95 96 97 98 
99 
POINT_DATA 100
FIELD FieldData 3
_theta 1 100 double
0 0.031733259127 0.063466518254 0.095199777382 0.12693303651 0.15866629564 0.19039955476 0.22213281389 0.25386607302 
0.28559933214 0.31733259127 0.3490658504 0.38079910953 0.41253236865 0.44426562778 0.47599888691 0.50773214603 0.53946540516 
0.57119866429 0.60293192342 0.63466518254 0.66639844167 0.6981317008 0.72986495992 0.76159821905 0.79333147818 0.82506473731 
0.85679799643 0.88853125556 0.92026451469 0.95199777382 0.98373103294 1.0154642921 1.0471975512 1.0789308103 1.1106640695 
1.1423973286 1.1741305877 1.2058638468 1.237597106 1.2693303651 1.3010636242 1.3327968833 1.3645301425 1.3962634016 
1.4279966607 1.4597299198 1.491463179 1.5231964381 1.5549296972 1.5866629564 1.6183962155 1.6501294746 1.6818627337 
1.7135959929 1.745329252 1.7770625111 1.8087957702 1.8405290294 1.8722622885 1.9039955476 1.9357288068 1.9674620659 
1.999195325 2.0309285841 2.0626618433 2.0943951024 2.1261283615 2.1578616206 2.1895948798 2.2213281389 2.253061398 
2.2847946572 2.3165279163 2.3482611754 2.3799944345 2.4117276937 2.4434609528 2.4751942119 2.506927471 2.5386607302 
2.5703939893 2.6021272484 2.6338605076 2.6655937667 2.6973270258 2.7290602849 2.7607935441 2.7925268032 2.8242600623 
2.8559933214 2.8877265806 2.9194598397 2.9511930988 2.982926358 3.0146596171 3.0463928762 3.0781261353 3.1098593945 
3.1415926536 
_radius 1 100 double
8.0672811207e-15 0.29099884633 0.57890762505 0.86104346967 1.1355102331 1.401351757 1.658489961 1.9074768657 2.1491350758 
2.3841825328 2.6129304108 2.8351135338 3.0498731529 3.2558761574 3.451531977 3.6352596165 3.8057571402 3.962228572 
4.1045274344 4.2331855751 4.3493142127 4.4543901435 4.5499672343 4.6373731702 4.7174577527 4.7904499741 4.855958563 
4.9131193821 4.9608597591 4.9982223681 5.024676363 5.0403446014 5.0460925175 5.043452787 5.0343946145 5.0209804015 
5.0049786017 4.987513418 4.968825902 4.9481978713 4.9240562226 4.8942403595 4.8563879784 4.8083779933 4.7487632261 
4.6771277092 4.5943131632 4.5024763606 4.4049628407 4.3060101614 4.2103212714 4.1225709261 4.0469215567 3.986626213 
3.9437794245 3.9192374269 3.9126798287 3.9227588667 3.9472978979 3.9835295634 4.0283662051 4.0786709025 4.1314798427 
4.1841372721 4.2343370586 4.2801004028 4.3197391881 4.3518491977 4.3753498842 4.3895522913 4.3942127665 4.3895291318 
4.3760566679 4.3545509902 4.3257684322 4.2902630574 4.2482136909 4.1993022392 4.1426559167 4.0768653655 4.0000911177 
3.9102599485 3.8053277417 3.6835591714 3.5437638022 3.385440742 3.2088138139 3.014771906 2.8047503647 2.5805916865 
2.3444097874 2.0984622647 1.845022153 1.5862424354 1.3240205234 1.0598849241 0.79493049355 0.52981802396 0.26483507865 
4.4287075484e-14 
_area 1 100 double
0 0.2325176696 0.92036389676 2.0367219725 3.5437290788 5.4000926884 7.5675909223 10.014446987 12.715023412 
15.646766497 18.786085507 22.10463906 25.566782596 29.128441619 32.737719038 36.337747605 39.872052595 43.291749272 
46.562661876 49.669768063 52.616933808 55.421615493 58.106142277 60.688243655 63.173220347 65.549097277 67.785170613 
69.834072681 71.637576294 73.136150154 74.281300142 75.048237192 75.445239447 75.516091326 75.33354049 74.984473046 
74.550583528 74.090456725 73.628761079 73.155032959 72.629963244 71.994682408 71.1800871 70.116605988 68.746284807 
67.037320255 64.997975461 62.684931769 60.201969402 57.687719204 55.294140913 53.159357857 51.381853196 50.008807721 
49.046946759 48.483666872 48.298228246 48.458724267 48.9151362 49.598812873 50.43041054 51.331724563 52.235646423 
53.090374289 53.856893902 54.501974483 54.991439858 55.288802479 55.361492052 55.191543114 54.783383843 54.162432222 
53.364547885 52.423435553 51.364809578 50.209965802 48.982322191 47.706735991 46.396545155 45.034498216 43.562610999 
41.892518791 39.933356023 37.622859794 34.947806137 31.947478632 28.701897426 25.312016657 21.880800992 18.501578611 
15.254810672 12.209783776 9.4265355289 6.9554686358 4.8351858805 3.090787381 1.7345172193 0.7690175335 0.19191367378 
1.3054048001e-13 
