# vtk DataFile Version 5.1
vtk output
ASCII
DATASET POLYDATA
POINTS 1002 float
-10.1407 1.01238 -2.37353 -25.3455 -14.7911 -5.19215 -9.35872 -2.27365 4.1145 
-24.2954 -15.6423 -0.261049 -13.6584 -6.83244 -2.89695 -14.0455 -8.07168 0.322971 
-21.2753 -2.776 -0.804609 -21.157 -3.48252 3.21587 -22.7838 -28.1466 -5.53989 
-0.488235 -1.13413 -0.106032 -29.5087 -20.8925 -3.41139 -10.1523 6.08787 2.7948 
-11.2179 0.267996 -2.48213 -12.4741 -0.64746 -2.57083 -13.9038 -1.79344 -2.5488 
-15.6774 -3.17134 -2.50032 -17.9606 -4.82043 -2.72047 -20.3548 -6.7954 -3.27707 
-22.2325 -8.95601 -3.91264 -23.5415 -11.0637 -4.44641 -24.5514 -13.0129 -4.86511 
-9.90013 0.531601 -2.62351 -9.71299 -0.0734099 -2.83958 -9.63153 -0.877405 -3.01295 
-9.68762 -1.79077 -3.20458 -9.80265 -2.64447 -3.41268 -9.94971 -3.52813 -3.53 
-10.3506 -4.56294 -3.50366 -11.2022 -5.54012 -3.35427 -12.3919 -6.26406 -3.12484 
-11.0581 1.00843 -2.16601 -12.0722 0.941502 -1.93354 -13.1879 0.755418 -1.6965 
-14.4171 0.40163 -1.46227 -15.7108 -0.0745896 -1.23406 -16.9827 -0.596827 -1.06099 
-18.1931 -1.14637 -0.973901 -19.326 -1.70994 -0.918307 -20.3584 -2.25685 -0.854982 
-8.95881 1.41191 -2.4353 -7.72552 1.754 -2.47544 -6.439 1.94606 -2.4197 
-5.05417 1.92418 -2.26567 -3.66011 1.72574 -2.09785 -2.49239 1.37897 -1.88486 
-1.64153 0.856062 -1.51795 -1.02297 0.201899 -1.03572 -0.619734 -0.481464 -0.551553 
-9.72274 1.75247 -2.14777 -9.36938 2.54045 -1.87742 -9.11486 3.30953 -1.51713 
-9.01645 4.06276 -1.06556 -9.05334 4.7655 -0.529936 -9.12025 5.30047 0.105295 
-9.22955 5.70796 0.795843 -9.48787 6.046 1.48594 -9.84829 6.1932 2.16326 
-24.7362 -14.6294 -5.18623 -24.0476 -14.2566 -5.18026 -23.2759 -13.6472 -5.12778 
-22.3761 -12.8643 -4.95281 -21.4036 -11.9602 -4.62497 -20.3685 -10.8654 -4.15925 
-19.033 -9.54918 -3.63263 -17.2894 -8.24044 -3.19637 -15.3975 -7.28513 -2.9582 
-25.43 -13.7534 -4.9917 -25.3752 -12.5873 -4.7135 -25.1864 -11.2888 -4.33538 
-24.8846 -9.8868 -3.87267 -24.4163 -8.50411 -3.33078 -23.771 -7.17116 -2.73629 
-23.0672 -5.84242 -2.1809 -22.4036 -4.62194 -1.6987 -21.8035 -3.61532 -1.24363 
-25.6161 -16.5214 -5.48955 -25.7448 -18.3752 -5.83658 -25.7165 -20.2599 -6.24876 
-25.5458 -22.2132 -6.59637 -25.3036 -24.2763 -6.70981 -24.9616 -26.1181 -6.69566 
-24.3537 -27.3403 -6.72951 -23.5626 -28.001 -6.63884 -22.9677 -28.2803 -6.20658 
-26.0778 -15.8916 -5.36612 -26.7187 -16.9837 -5.49449 -27.2997 -18.0469 -5.55549 
-27.8688 -19.0225 -5.54069 -28.3556 -19.8186 -5.39408 -28.7175 -20.4401 -5.11464 
-29.0419 -20.9415 -4.80152 -29.3326 -21.2512 -4.45087 -29.4938 -21.2396 -3.97855 
-10.4164 -2.90253 4.03282 -11.679 -3.63801 3.93384 -13.2469 -4.45155 3.74742 
-15.2103 -5.34044 3.31522 -17.3893 -6.49041 2.69081 -19.3883 -8.08983 2.04793 
-21.0326 -9.99421 1.3528 -22.3877 -11.9349 0.631031 -23.4797 -13.8257 0.0812341 
-9.21711 -2.8659 3.83956 -9.13373 -3.54505 3.55112 -9.19284 -4.25845 3.21179 
-9.43281 -4.97764 2.82955 -9.82955 -5.65185 2.41585 -10.3986 -6.23658 1.95704 
-11.1727 -6.76396 1.49842 -12.098 -7.24978 1.09022 -13.0774 -7.67645 0.708377 
-10.1631 -2.14482 4.37151 -11.136 -2.12404 4.62887 -12.3914 -2.19178 4.82664 
-13.9033 -2.27633 4.91521 -15.4278 -2.34301 4.84487 -16.8124 -2.44357 4.6067 
-18.1089 -2.62509 4.29179 -19.2943 -2.87368 3.96809 -20.2959 -3.16329 3.61088 
-8.25753 -2.03847 3.96949 -7.10922 -1.81783 3.7431 -5.95518 -1.58447 3.43128 
-4.79265 -1.38321 3.04988 -3.65355 -1.27052 2.62411 -2.64241 -1.20017 2.19676 
-1.78108 -1.13407 1.74836 -1.06005 -1.11041 1.18667 -0.593935 -1.12678 0.524592 
-8.85745 -1.54365 4.31822 -8.37783 -0.686488 4.45526 -7.95748 0.367136 4.48272 
-7.67621 1.62651 4.45218 -7.63115 2.99006 4.37703 -7.85594 4.20332 4.18907 
-8.31178 5.04242 3.91118 -8.92574 5.5661 3.60324 -9.58109 5.91819 3.23659 
-23.7174 -15.215 -0.287515 -23.0958 -14.6033 -0.329515 -22.3545 -13.854 -0.334935 
-21.4191 -13.0112 -0.232982 -20.3659 -12.065 -0.0538984 -19.2731 -11.0417 0.124523 
-18.0781 -10.0573 0.297533 -16.7587 -9.20878 0.42906 -15.392 -8.53623 0.435506 
-24.4198 -14.7863 -0.066203 -24.487 -13.7252 0.164268 -24.4306 -12.5065 0.487706 
-24.1943 -11.1821 0.916098 -23.78 -9.77628 1.37422 -23.2886 -8.34393 1.81286 
-22.8028 -6.98383 2.2559 -22.2876 -5.73735 2.67227 -21.7175 -4.57198 2.99336 
-24.5923 -17.2648 -0.584866 -24.7832 -18.9923 -1.01088 -24.8229 -20.7829 -1.47317 
-24.6626 -22.6278 -1.84697 -24.3732 -24.3715 -2.2632 -24.1144 -25.767 -2.89425 
-23.8418 -26.8401 -3.58449 -23.4099 -27.6918 -4.22399 -22.9636 -28.1722 -4.89626 
-25.0562 -16.9586 -0.433794 -25.7915 -18.236 -0.654284 -26.5229 -19.349 -0.926286 
-27.2509 -20.2695 -1.20982 -27.8787 -20.9988 -1.51678 -28.3625 -21.4433 -1.87382 
-28.792 -21.5792 -2.23283 -29.1803 -21.5395 -2.58989 -29.4297 -21.3522 -2.99586 
-13.4403 -7.06805 -2.74941 -13.2858 -7.35594 -2.55786 -13.2377 -7.64727 -2.32424 
-13.2174 -7.89815 -2.03567 -13.1424 -8.10865 -1.67262 -13.1385 -8.25056 -1.24125 
-13.309 -8.26668 -0.79706 -13.5597 -8.18736 -0.391652 -13.8075 -8.10982 -0.0220542 
-15.9538 -7.88883 -2.85975 -18.0332 -9.87313 -3.23686 -19.6131 -12.5775 -3.86822 
-20.8594 -15.3123 -4.38282 -21.9113 -17.7971 -4.72062 -22.6606 -20.3299 -5.06256 
-23.0511 -22.9679 -5.39973 -23.0907 -25.3258 -5.61936 -22.903 -27.0683 -5.67154 
-11.2914 -6.51965 -3.10796 -9.21492 -6.40353 -3.27791 -7.56655 -5.99176 -3.13175 
-6.11895 -5.28794 -2.75761 -4.75674 -4.58817 -2.3676 -3.5755 -3.8681 -1.93156 
-2.5282 -3.08148 -1.44358 -1.5569 -2.37229 -1.00693 -0.820996 -1.75012 -0.586268 
-15.8627 -8.91013 -0.0548187 -17.6 -10.3382 -0.60532 -19.0229 -12.4092 -1.2389 
-20.1777 -14.8029 -1.84467 -21.2776 -17.1058 -2.43312 -22.2629 -19.4224 -3.03093 
-22.8618 -22.0961 -3.63779 -23.0016 -24.8298 -4.28229 -22.8785 -26.9281 -4.93863 
-12.0058 -7.62297 0.385353 -9.82121 -7.42448 0.465942 -7.70557 -7.27695 0.619595 
-5.85934 -6.91894 0.735098 -4.38012 -6.26577 0.689462 -3.20251 -5.44125 0.519952 
-2.19169 -4.48833 0.327346 -1.33167 -3.37501 0.157949 -0.73789 -2.20909 0.0161438 
-21.5015 -2.59675 -0.506927 -21.7232 -2.41731 -0.178024 -21.9359 -2.23763 0.227438 
-22.0914 -2.05493 0.78011 -22.1247 -1.955 1.46032 -22.0519 -2.03996 2.1123 
-21.8928 -2.28168 2.58415 -21.6408 -2.61868 2.87152 -21.369 -3.03497 3.06434 
-22.501 -3.85908 -1.06554 -23.8283 -5.15125 -1.40277 -25.1652 -6.68691 -1.77095 
-26.4382 -8.40797 -2.09121 -27.6165 -10.105 -2.35133 -28.5529 -11.7994 -2.62385 
-29.0831 -13.929 -2.9464 -29.31 -16.5531 -3.24111 -29.4387 -19.046 -3.40115 
-20.2188 -1.63563 -0.3986 -19.0963 -0.415806 0.0163382 -17.9384 0.791533 0.429429 
-16.7731 1.86438 0.862784 -15.5676 2.80856 1.33439 -14.3336 3.71333 1.74519 
-13.1986 4.58293 2.02877 -12.1935 5.32607 2.28941 -11.1983 5.84256 2.57483 
-22.3687 -4.56423 2.65219 -23.6566 -5.87117 1.99706 -24.963 -7.41715 1.2885 
-26.2909 -9.18011 0.588374 -27.5693 -11.0656 -0.0298234 -28.5541 -13.0137 -0.583399 
-29.0844 -15.0815 -1.22854 -29.301 -17.2449 -2.01577 -29.4235 -19.262 -2.78644 
-20.1 -2.22245 3.65099 -19.0739 -0.969109 4.09337 -18.0815 0.258409 4.47402 
-16.9704 1.49244 4.65349 -15.6578 2.66064 4.59231 -14.2568 3.62529 4.38762 
-12.9684 4.42734 4.09952 -11.9188 5.14805 3.7245 -11.0304 5.7206 3.27836 
-22.9702 -28.9736 -5.71056 -23.7122 -29.491 -5.75899 -25.0039 -29.6445 -5.61788 
-26.3318 -29.2438 -5.31175 -27.2463 -28.304 -4.98956 -27.9289 -27.0366 -4.70759 
-28.6371 -25.5993 -4.38129 -29.2129 -24.1114 -4.02009 -29.4816 -22.5819 -3.70485 
-0.544171 -0.0655994 0.157259 -0.972365 1.09282 0.423691 -1.69164 2.24373 0.649132 
-2.58782 3.31089 0.89348 -3.58514 4.31951 1.18985 -4.6768 5.25039 1.45894 
-5.92969 5.92247 1.73786 -7.36106 6.22845 2.1198 -8.83219 6.2511 2.51671 
-11.1145 -0.279439 -2.73678 -11.0854 -1.01603 -2.90852 -12.5183 -1.31562 -2.78697 
-11.1562 -1.9434 -3.03714 -12.6412 -2.18259 -2.89276 -14.136 -2.58398 -2.70009 
-11.3154 -2.82099 -3.23109 -12.8823 -3.11426 -3.00112 -14.527 -3.50651 -2.79836 
-16.2624 -4.09388 -2.67408 -11.5605 -3.58188 -3.40409 -13.3328 -3.92509 -3.17188 
-15.1616 -4.46657 -2.96175 -17.0709 -5.17858 -2.88557 -18.8757 -6.00589 -3.02161 
-12.0525 -4.49254 -3.38795 -14.103 -4.8139 -3.23386 -16.1317 -5.51651 -3.14939 
-18.0459 -6.44417 -3.19286 -19.8021 -7.42765 -3.39029 -21.2041 -8.28825 -3.67972 
-12.9656 -5.54528 -3.22691 -15.1641 -5.97101 -3.15824 -17.3069 -6.82455 -3.26375 
-19.0748 -7.89631 -3.52944 -20.5655 -8.97588 -3.85017 -21.8096 -9.90484 -4.13731 
-22.7716 -10.5881 -4.33675 -14.1816 -6.4804 -3.05957 -16.3004 -7.16869 -3.12427 
-18.3319 -8.25252 -3.4052 -19.8994 -9.43694 -3.84696 -21.1061 -10.5109 -4.29211 
-22.1654 -11.4411 -4.61186 -23.0794 -12.1865 -4.77237 -23.8614 -12.6991 -4.8324 
-8.61416 0.859128 -2.68678 -7.28665 1.08668 -2.71551 -8.31548 0.158962 -2.91015 
-5.90877 1.15194 -2.60979 -6.89279 0.258784 -2.92431 -8.16325 -0.726183 -3.11198 
-4.49615 1.01785 -2.40987 -5.50381 0.180142 -2.78564 -6.7124 -0.748247 -3.10107 
-8.21726 -1.70116 -3.29437 -3.2321 0.684769 -2.21865 -4.23667 -0.107737 -2.58329 
-5.4117 -1.00341 -2.93041 -6.82679 -1.85959 -3.18957 -8.38447 -2.70404 -3.41425 
-2.27536 0.177637 -1.9404 -3.20694 -0.58226 -2.34445 -4.32082 -1.4606 -2.70648 
-5.64475 -2.27529 -2.95615 -7.16203 -3.04291 -3.21349 -8.65706 -3.8441 -3.48298 
-1.57696 -0.436084 -1.50124 -2.4421 -1.14853 -1.93968 -3.46929 -2.00044 -2.37672 
-4.6769 -2.81516 -2.70007 -6.15543 -3.53821 -2.95875 -7.67244 -4.33179 -3.30039 
-9.2088 -5.02911 -3.50099 -1.07677 -1.08992 -1.02136 -1.89728 -1.74275 -1.44096 
-2.88776 -2.53267 -1.90056 -3.98203 -3.35312 -2.34942 -5.3262 -4.06502 -2.69596 
-6.83942 -4.82151 -3.05898 -8.34734 -5.54275 -3.37929 -10.1187 -5.94722 -3.37777 
-1.2584 -2.8991 -0.48742 -1.99981 -4.13064 -0.397053 -2.15283 -3.59637 -0.969673 
-2.90862 -5.28234 -0.262756 -2.9411 -4.89499 -0.96878 -3.21957 -4.36577 -1.48458 
-3.95271 -6.27126 -0.0438002 -3.82792 -6.10442 -0.863692 -4.03975 -5.69004 -1.51754 
-4.37782 -5.13541 -1.98158 -5.29378 -7.0715 0.162633 -4.96233 -7.10471 -0.622412 
-4.99852 -6.88565 -1.40032 -5.30175 -6.41589 -1.9796 -5.66638 -5.84042 -2.40972 
[...]
POINT_DATA 1002
FIELD FieldData 4
_paraPhi 1 1002 double
6.2831853072 3.1415926536 6.2831853072 3.1415926536 4.7123889804 4.7123889804 1.5707963268 1.5707963268 3.6951670125 
5.7296109483 2.5880182947 0.5535743589 6.2831853072 6.2831853072 6.2831853072 6.2831853072 3.1415926536 3.1415926536 
3.1415926536 3.1415926536 3.1415926536 6.1053039672 5.898798347 5.6768734901 5.4599499503 5.2659633393 5.1032165617 
4.9713148346 4.8656852733 4.7809517865 0.17788134 0.38438696014 0.60631181711 0.82323535693 1.0172219679 1.1799687454 
1.3118704726 1.4175000338 1.5022335207 6.1892828907 6.1070320098 6.035312792 5.9728339911 5.9183214791 5.8706119594 
5.8286879411 5.7916808611 5.7588591896 0.093902416448 0.17615329733 0.2478725152 0.31035131605 0.36486382811 0.41257334776 
0.45449736604 0.4915044461 0.52432611754 3.3194739936 3.5259796137 3.7479044707 3.9648280105 4.1588146215 4.321561399 
4.4534631262 4.5590926874 4.6438261743 2.9637113136 2.7572056934 2.5352808365 2.3183572967 2.1243706857 1.9616239082 
1.829722181 1.7240926197 1.6393591329 3.23549507 3.3177459509 3.3894651688 3.4519439696 3.5064564817 3.5541660013 
3.5960900196 3.6330970997 3.6659187711 3.0476902371 2.9654393563 2.8937201384 2.8312413375 2.7767288255 2.7290193058 
2.6870952876 2.6500882075 2.617266536 6.2831853072 6.2831853072 6.2831853072 6.2831853072 3.1415926536 3.1415926536 
3.1415926536 3.1415926536 3.1415926536 6.1053039672 5.898798347 5.6768734901 5.4599499503 5.2659633393 5.1032165617 
4.9713148346 4.8656852733 4.7809517865 0.17788134 0.38438696014 0.60631181711 0.82323535693 1.0172219679 1.1799687454 
1.3118704726 1.4175000338 1.5022335207 6.1892828907 6.1070320098 6.035312792 5.9728339911 5.9183214791 5.8706119594 
5.8286879411 5.7916808611 5.7588591896 0.093902416448 0.17615329733 0.2478725152 0.31035131605 0.36486382811 0.41257334776 
0.45449736604 0.4915044461 0.52432611754 3.3194739936 3.5259796137 3.7479044707 3.9648280105 4.1588146215 4.321561399 
4.4534631262 4.5590926874 4.6438261743 2.9637113136 2.7572056934 2.5352808365 2.3183572967 2.1243706857 1.9616239082 
1.829722181 1.7240926197 1.6393591329 3.23549507 3.3177459509 3.3894651688 3.4519439696 3.5064564817 3.5541660013 
3.5960900196 3.6330970997 3.6659187711 3.0476902371 2.9654393563 2.8937201384 2.8312413375 2.7767288255 2.7290193058 
2.6870952876 2.6500882075 2.617266536 4.7123889804 4.7123889804 4.7123889804 4.7123889804 4.7123889804 4.7123889804 
4.7123889804 4.7123889804 4.7123889804 4.6087898617 4.4991390697 4.3857031936 4.2712800401 4.1588146215 4.0509635631 
3.94975894 3.8564636551 3.7716124825 4.8159880991 4.9256388911 5.0390747672 5.1534979207 5.2659633393 5.3738143976 
5.4750190208 5.5683143056 5.6531654782 4.6087898617 4.4991390697 4.3857031936 4.2712800401 4.1588146215 4.0509635631 
3.94975894 3.8564636551 3.7716124825 4.8159880991 4.9256388911 5.0390747672 5.1534979207 5.2659633393 5.3738143976 
5.4750190208 5.5683143056 5.6531654782 1.5707963268 1.5707963268 1.5707963268 1.5707963268 1.5707963268 1.5707963268 
1.5707963268 1.5707963268 1.5707963268 1.6743954455 1.7840462375 1.8974821136 2.0119052671 2.1243706857 2.232221744 
2.3334263672 2.426721652 2.5115728246 1.4671972081 1.3575464161 1.24411054 1.1296873865 1.0172219679 0.90937090954 
0.80816628637 0.71487100155 0.63001982895 1.6743954455 1.7840462375 1.8974821136 2.0119052671 2.1243706857 2.232221744 
2.3334263672 2.426721652 2.5115728246 1.4671972081 1.3575464161 1.24411054 1.1296873865 1.0172219679 0.90937090954 
0.80816628637 0.71487100155 0.63001982895 3.6007720849 3.4966939854 3.3839471039 3.2645756454 3.1415926536 3.0186096618 
2.8992382033 2.7864913217 2.6824132222 5.8240058758 5.9280839753 6.0408308569 6.1602023154 6.2831853072 0.12298299178 
0.2423544503 0.35510133185 0.45917943135 6.0560271438 5.7885595667 5.9702140275 5.5125918794 5.6029703303 5.7885595667 
5.2659633393 5.2659633393 5.2659633393 5.2659633393 5.0674903122 5.0120975802 4.9155579264 4.7123889804 4.1588146215 
4.9155579264 4.8353719722 4.7123889804 4.5092200343 4.1588146215 3.6362183941 4.8004512023 4.7123889804 4.5894059886 
4.4126803806 4.1588146215 3.8218076305 3.4545639333 4.7123889804 4.6243267584 4.5092200343 4.3572876485 4.1588146215 
3.9121860814 3.6362183941 3.368750817 6.0174235957 5.9434319871 5.8263323547 5.8809213739 5.7674481418 5.6279784266 
5.8278025282 5.718968232 5.5891129425 5.4372443565 5.7823484065 5.678536687 5.5575666702 5.4192596322 5.2659633393 
5.743164462 5.6444075337 5.5314983644 5.4046708639 5.2659633393 5.1195510325 5.7091357773 5.6152775188 5.5096229709 
5.3926039573 5.2659633393 5.1329233157 4.9978930058 5.6793730533 5.5901633916 5.4910209005 5.3824597928 5.2659633393 
5.1440684722 5.0201624502 4.8979782167 5.5683143056 5.4750190208 5.4750190208 5.3738143976 5.3738143976 5.3738143976 
5.2659633393 5.2659633393 5.2659633393 5.2659633393 5.1534979207 5.1534979207 5.1534979207 5.1534979207 5.1534979207 
5.0390747672 5.0390747672 5.0390747672 5.0390747672 5.0390747672 5.0390747672 4.9256388911 4.9256388911 4.9256388911 
4.9256388911 4.9256388911 4.9256388911 4.9256388911 4.8159880991 4.8159880991 4.8159880991 4.8159880991 4.8159880991 
4.8159880991 4.8159880991 4.8159880991 4.6087898617 4.6087898617 4.4991390697 4.6087898617 4.4991390697 4.3857031936 
4.6087898617 4.4991390697 4.3857031936 4.2712800401 4.6087898617 4.4991390697 4.3857031936 4.2712800401 4.1588146215 
4.6087898617 4.4991390697 4.3857031936 4.2712800401 4.1588146215 4.0509635631 4.6087898617 4.4991390697 4.3857031936 
4.2712800401 4.1588146215 4.0509635631 3.94975894 4.6087898617 4.4991390697 4.3857031936 4.2712800401 4.1588146215 
4.0509635631 3.94975894 3.8564636551 4.526799744 4.4046155105 4.426884955 4.2807094886 4.2918546451 4.3052269283 
4.1588146215 4.1588146215 4.1588146215 4.1588146215 4.042318168 4.0321740035 4.0201070968 4.0055183285 3.9875336042 
3.9337570603 3.9151549899 3.8932795963 3.8672112905 3.8356650183 3.7967995342 3.8346145692 3.809500442 3.7803704271 
3.7462412737 3.7058097288 3.657329819 3.5984456061 3.7454049075 3.7156421835 3.6816134988 3.6424295543 3.5969754326 
3.5438565869 3.4813459737 3.4073543651 3.5642842451 3.4524645613 3.5233842518 3.3320300872 3.403123212 3.4773852225 
3.20576226 3.2746326772 3.348015857 3.4255060145 3.0774230472 3.1415926536 3.2112816139 3.2864685043 3.3668817272 
2.95115522 3.00855263 3.0719036933 3.1415926536 3.2178377658 3.3005964304 2.8307207459 2.8800620952 2.9351694502 
2.9967168029 3.0653475414 3.1415926536 3.225752376 2.718901062 2.7598010554 2.8058000847 2.8576792927 2.91630358 
2.9825888767 3.0574329311 3.1415926536 3.5642842451 3.5233842518 3.4524645613 3.4773852225 3.403123212 3.3320300872 
3.4255060145 3.348015857 3.2746326772 3.20576226 3.3668817272 3.2864685043 3.2112816139 3.1415926536 3.0774230472 
3.3005964304 3.2178377658 3.1415926536 3.0719036933 3.00855263 2.95115522 3.225752376 3.1415926536 3.0653475414 
2.9967168029 2.9351694502 2.8800620952 2.8307207459 3.1415926536 3.0574329311 2.9825888767 2.91630358 2.8576792927 
2.8058000847 2.7598010554 2.718901062 4.526799744 4.426884955 4.4046155105 4.3052269283 4.2918546451 4.2807094886 
4.1588146215 4.1588146215 4.1588146215 4.1588146215 3.9875336042 4.0055183285 4.0201070968 4.0321740035 4.042318168 
3.7967995342 3.8356650183 3.8672112905 3.8932795963 3.9151549899 3.9337570603 3.5984456061 3.657329819 3.7058097288 
3.7462412737 3.7803704271 3.809500442 3.8346145692 3.4073543651 3.4813459737 3.5438565869 3.5969754326 3.6424295543 
3.6816134988 3.7156421835 3.7454049075 4.7123889804 4.8004512023 4.6243267584 4.9155579264 4.7123889804 4.5092200343 
5.0674903122 4.8353719722 4.5894059886 4.3572876485 5.2659633393 5.0120975802 4.7123889804 4.4126803806 4.1588146215 
5.5125918794 5.2659633393 4.9155579264 4.5092200343 4.1588146215 3.9121860814 5.7885595667 5.6029703303 5.2659633393 
4.7123889804 4.1588146215 3.8218076305 3.6362183941 6.0560271438 5.9702140275 5.7885595667 5.2659633393 4.1588146215 
3.6362183941 3.4545639333 3.368750817 0.22715816343 0.49462574053 0.3129712797 0.77059342779 0.68021497688 0.49462574053 
1.0172219679 1.0172219679 1.0172219679 1.0172219679 1.2156949949 1.271087727 1.3676273807 1.5707963268 2.1243706857 
1.3676273807 1.447813335 1.5707963268 1.7739652728 2.1243706857 2.6469669131 1.4827341049 1.5707963268 1.6937793186 
1.8705049266 2.1243706857 2.4613776767 2.8286213739 1.5707963268 1.6588585487 1.7739652728 1.9258976586 2.1243706857 
2.3709992258 2.6469669131 2.9144344902 1.7563855631 1.8785697967 1.8563003522 2.0024758186 1.9913306621 1.9779583789 
2.1243706857 2.1243706857 2.1243706857 2.1243706857 2.2408671392 2.2510113037 2.2630782103 2.2776669786 2.295651703 
2.3494282469 2.3680303173 2.3899057108 2.4159740166 2.4475202889 2.486385773 2.448570738 2.4736848652 2.5028148801 
2.5369440334 2.5773755784 2.6258554882 2.6847397011 2.5377803997 2.5675431237 2.6015718084 2.6407557529 2.6862098746 
2.7393287203 2.8018393335 2.8758309421 1.6743954455 1.6743954455 1.7840462375 1.6743954455 1.7840462375 1.8974821136 
1.6743954455 1.7840462375 1.8974821136 2.0119052671 1.6743954455 1.7840462375 1.8974821136 2.0119052671 2.1243706857 
1.6743954455 1.7840462375 1.8974821136 2.0119052671 2.1243706857 2.232221744 1.6743954455 1.7840462375 1.8974821136 
2.0119052671 2.1243706857 2.232221744 2.3334263672 1.6743954455 1.7840462375 1.8974821136 2.0119052671 2.1243706857 
2.232221744 2.3334263672 2.426721652 1.4671972081 1.3575464161 1.4671972081 1.24411054 1.3575464161 1.4671972081 
1.1296873865 1.24411054 1.3575464161 1.4671972081 1.0172219679 1.1296873865 1.24411054 1.3575464161 1.4671972081 
0.90937090954 1.0172219679 1.1296873865 1.24411054 1.3575464161 1.4671972081 0.80816628637 0.90937090954 1.0172219679 
1.1296873865 1.24411054 1.3575464161 1.4671972081 0.71487100155 0.80816628637 0.90937090954 1.0172219679 1.1296873865 
1.24411054 1.3575464161 1.4671972081 0.60381225391 0.57404952988 0.69302191562 0.54002084522 0.66790778838 0.79216440667 
0.50083690068 0.63877777351 0.77356233629 0.90072551443 0.45538277901 0.60464862014 0.75168694275 0.89058134991 1.0172219679 
0.40226393329 0.56421707518 0.72561863695 0.87851444325 1.0172219679 1.139116835 0.33975332011 0.51573716537 0.69407236469 
0.86392567495 1.0172219679 1.1502619915 1.2630228569 0.26576171152 0.45685295248 0.6552068806 0.84594095064 1.0172219679 
1.1636342747 1.2852923014 1.3852070904 0.22715816343 0.3129712797 0.49462574053 0.49462574053 0.68021497688 0.77059342779 
1.0172219679 1.0172219679 1.0172219679 1.0172219679 2.1243706857 1.5707963268 1.3676273807 1.271087727 1.2156949949 
2.6469669131 2.1243706857 1.7739652728 1.5707963268 1.447813335 1.3676273807 2.8286213739 2.4613776767 2.1243706857 
1.8705049266 1.6937793186 1.5707963268 1.4827341049 2.9144344902 2.6469669131 2.3709992258 2.1243706857 1.9258976586 
1.7739652728 1.6588585487 1.5707963268 1.7563855631 1.8563003522 1.8785697967 1.9779583789 1.9913306621 2.0024758186 
2.1243706857 2.1243706857 2.1243706857 2.1243706857 2.295651703 2.2776669786 2.2630782103 2.2510113037 2.2408671392 
2.486385773 2.4475202889 2.4159740166 2.3899057108 2.3680303173 2.3494282469 2.6847397011 2.6258554882 2.5773755784 
2.5369440334 2.5028148801 2.4736848652 2.448570738 2.8758309421 2.8018393335 2.7393287203 2.6862098746 2.6407557529 
2.6015718084 2.5675431237 2.5377803997 5.8604937156 5.901393709 5.9723133995 5.9473927383 6.0216547488 6.0927478736 
5.9992719463 6.0767621038 6.1501452836 6.2190157008 6.0578962336 6.1383094565 6.2134963469 0 0.064169606361 
6.1241815303 6.206940195 6.2831853072 0.069688960264 0.13304002361 0.19043743361 6.1990255847 0 0.07624511221 
0.14487585072 0.20642320337 0.26153055843 0.3108719077 0 0.084159722458 0.15900377685 0.22528907359 0.28391336087 
0.3357925689 0.38179159818 0.42269159155 5.8604937156 5.9723133995 5.901393709 6.0927478736 6.0216547488 5.9473927383 
6.2190157008 6.1501452836 6.0767621038 5.9992719463 0.064169606361 0 6.2134963469 6.1383094565 6.0578962336 
0.19043743361 0.13304002361 0.069688960264 6.2831853072 6.206940195 6.1241815303 0.3108719077 0.26153055843 0.20642320337 
0.14487585072 0.07624511221 6.2831853072 6.1990255847 0.42269159155 0.38179159818 0.3357925689 0.28391336087 0.22528907359 
0.15900377685 0.084159722458 0 5.6793730533 5.7091357773 5.5901633916 5.743164462 5.6152775188 5.4910209005 
5.7823484065 5.6444075337 5.5096229709 5.3824597928 5.8278025282 5.678536687 5.5314983644 5.3926039573 5.2659633393 
5.8809213739 5.718968232 5.5575666702 5.4046708639 5.2659633393 5.1440684722 5.9434319871 5.7674481418 5.5891129425 
5.4192596322 5.2659633393 5.1329233157 5.0201624502 6.0174235957 5.8263323547 5.6279784266 5.4372443565 5.2659633393 
5.1195510325 4.9978930058 4.8979782167 1.3852070904 1.2852923014 1.2630228569 1.1636342747 1.1502619915 1.139116835 
1.0172219679 1.0172219679 1.0172219679 1.0172219679 0.84594095064 0.86392567495 0.87851444325 0.89058134991 0.90072551443 
0.6552068806 0.69407236469 0.72561863695 0.75168694275 0.77356233629 0.79216440667 0.45685295248 0.51573716537 0.56421707518 
0.60464862014 0.63877777351 0.66790778838 0.69302191562 0.26576171152 0.33975332011 0.40226393329 0.45538277901 0.50083690068 
0.54002084522 0.57404952988 0.60381225391 
_paraPhiHalf 1 1002 double
0 3.1415926536 0 3.1415926536 1.5707963268 1.5707963268 1.5707963268 1.5707963268 2.5880182947 
0.5535743589 2.5880182947 0.5535743589 0 0 0 0 3.1415926536 3.1415926536 
3.1415926536 3.1415926536 3.1415926536 0.17788134 0.38438696014 0.60631181711 0.82323535693 1.0172219679 1.1799687454 
1.3118704726 1.4175000338 1.5022335207 0.17788134 0.38438696014 0.60631181711 0.82323535693 1.0172219679 1.1799687454 
1.3118704726 1.4175000338 1.5022335207 0.093902416448 0.17615329733 0.2478725152 0.31035131605 0.36486382811 0.41257334776 
0.45449736604 0.4915044461 0.52432611754 0.093902416448 0.17615329733 0.2478725152 0.31035131605 0.36486382811 0.41257334776 
0.45449736604 0.4915044461 0.52432611754 2.9637113136 2.7572056934 2.5352808365 2.3183572967 2.1243706857 1.9616239082 
1.829722181 1.7240926197 1.6393591329 2.9637113136 2.7572056934 2.5352808365 2.3183572967 2.1243706857 1.9616239082 
1.829722181 1.7240926197 1.6393591329 3.0476902371 2.9654393563 2.8937201384 2.8312413375 2.7767288255 2.7290193058 
2.6870952876 2.6500882075 2.617266536 3.0476902371 2.9654393563 2.8937201384 2.8312413375 2.7767288255 2.7290193058 
2.6870952876 2.6500882075 2.617266536 0 0 0 0 3.1415926536 3.1415926536 
3.1415926536 3.1415926536 3.1415926536 0.17788134 0.38438696014 0.60631181711 0.82323535693 1.0172219679 1.1799687454 
1.3118704726 1.4175000338 1.5022335207 0.17788134 0.38438696014 0.60631181711 0.82323535693 1.0172219679 1.1799687454 
1.3118704726 1.4175000338 1.5022335207 0.093902416448 0.17615329733 0.2478725152 0.31035131605 0.36486382811 0.41257334776 
0.45449736604 0.4915044461 0.52432611754 0.093902416448 0.17615329733 0.2478725152 0.31035131605 0.36486382811 0.41257334776 
0.45449736604 0.4915044461 0.52432611754 2.9637113136 2.7572056934 2.5352808365 2.3183572967 2.1243706857 1.9616239082 
1.829722181 1.7240926197 1.6393591329 2.9637113136 2.7572056934 2.5352808365 2.3183572967 2.1243706857 1.9616239082 
1.829722181 1.7240926197 1.6393591329 3.0476902371 2.9654393563 2.8937201384 2.8312413375 2.7767288255 2.7290193058 
2.6870952876 2.6500882075 2.617266536 3.0476902371 2.9654393563 2.8937201384 2.8312413375 2.7767288255 2.7290193058 
2.6870952876 2.6500882075 2.617266536 1.5707963268 1.5707963268 1.5707963268 1.5707963268 1.5707963268 1.5707963268 
1.5707963268 1.5707963268 1.5707963268 1.6743954455 1.7840462375 1.8974821136 2.0119052671 2.1243706857 2.232221744 
2.3334263672 2.426721652 2.5115728246 1.4671972081 1.3575464161 1.24411054 1.1296873865 1.0172219679 0.90937090954 
0.80816628637 0.71487100155 0.63001982895 1.6743954455 1.7840462375 1.8974821136 2.0119052671 2.1243706857 2.232221744 
2.3334263672 2.426721652 2.5115728246 1.4671972081 1.3575464161 1.24411054 1.1296873865 1.0172219679 0.90937090954 
0.80816628637 0.71487100155 0.63001982895 1.5707963268 1.5707963268 1.5707963268 1.5707963268 1.5707963268 1.5707963268 
1.5707963268 1.5707963268 1.5707963268 1.6743954455 1.7840462375 1.8974821136 2.0119052671 2.1243706857 2.232221744 
2.3334263672 2.426721652 2.5115728246 1.4671972081 1.3575464161 1.24411054 1.1296873865 1.0172219679 0.90937090954 
0.80816628637 0.71487100155 0.63001982895 1.6743954455 1.7840462375 1.8974821136 2.0119052671 2.1243706857 2.232221744 
2.3334263672 2.426721652 2.5115728246 1.4671972081 1.3575464161 1.24411054 1.1296873865 1.0172219679 0.90937090954 
0.80816628637 0.71487100155 0.63001982895 2.6824132222 2.7864913217 2.8992382033 3.0186096618 3.1415926536 3.0186096618 
2.8992382033 2.7864913217 2.6824132222 0.45917943135 0.35510133185 0.2423544503 0.12298299178 0 0.12298299178 
0.2423544503 0.35510133185 0.45917943135 0.22715816343 0.49462574053 0.3129712797 0.77059342779 0.68021497688 0.49462574053 
1.0172219679 1.0172219679 1.0172219679 1.0172219679 1.2156949949 1.271087727 1.3676273807 1.5707963268 2.1243706857 
1.3676273807 1.447813335 1.5707963268 1.7739652728 2.1243706857 2.6469669131 1.4827341049 1.5707963268 1.6937793186 
1.8705049266 2.1243706857 2.4613776767 2.8286213739 1.5707963268 1.6588585487 1.7739652728 1.9258976586 2.1243706857 
2.3709992258 2.6469669131 2.9144344902 0.26576171152 0.33975332011 0.45685295248 0.40226393329 0.51573716537 0.6552068806 
0.45538277901 0.56421707518 0.69407236469 0.84594095064 0.50083690068 0.60464862014 0.72561863695 0.86392567495 1.0172219679 
0.54002084522 0.63877777351 0.75168694275 0.87851444325 1.0172219679 1.1636342747 0.57404952988 0.66790778838 0.77356233629 
0.89058134991 1.0172219679 1.1502619915 1.2852923014 0.60381225391 0.69302191562 0.79216440667 0.90072551443 1.0172219679 
1.139116835 1.2630228569 1.3852070904 0.71487100155 0.80816628637 0.80816628637 0.90937090954 0.90937090954 0.90937090954 
1.0172219679 1.0172219679 1.0172219679 1.0172219679 1.1296873865 1.1296873865 1.1296873865 1.1296873865 1.1296873865 
1.24411054 1.24411054 1.24411054 1.24411054 1.24411054 1.24411054 1.3575464161 1.3575464161 1.3575464161 
1.3575464161 1.3575464161 1.3575464161 1.3575464161 1.4671972081 1.4671972081 1.4671972081 1.4671972081 1.4671972081 
1.4671972081 1.4671972081 1.4671972081 1.6743954455 1.6743954455 1.7840462375 1.6743954455 1.7840462375 1.8974821136 
1.6743954455 1.7840462375 1.8974821136 2.0119052671 1.6743954455 1.7840462375 1.8974821136 2.0119052671 2.1243706857 
1.6743954455 1.7840462375 1.8974821136 2.0119052671 2.1243706857 2.232221744 1.6743954455 1.7840462375 1.8974821136 
2.0119052671 2.1243706857 2.232221744 2.3334263672 1.6743954455 1.7840462375 1.8974821136 2.0119052671 2.1243706857 
2.232221744 2.3334263672 2.426721652 1.7563855631 1.8785697967 1.8563003522 2.0024758186 1.9913306621 1.9779583789 
2.1243706857 2.1243706857 2.1243706857 2.1243706857 2.2408671392 2.2510113037 2.2630782103 2.2776669786 2.295651703 
2.3494282469 2.3680303173 2.3899057108 2.4159740166 2.4475202889 2.486385773 2.448570738 2.4736848652 2.5028148801 
2.5369440334 2.5773755784 2.6258554882 2.6847397011 2.5377803997 2.5675431237 2.6015718084 2.6407557529 2.6862098746 
2.7393287203 2.8018393335 2.8758309421 2.718901062 2.8307207459 2.7598010554 2.95115522 2.8800620952 2.8058000847 
3.0774230472 3.00855263 2.9351694502 2.8576792927 3.0774230472 3.1415926536 3.0719036933 2.9967168029 2.91630358 
2.95115522 3.00855263 3.0719036933 3.1415926536 3.0653475414 2.9825888767 2.8307207459 2.8800620952 2.9351694502 
2.9967168029 3.0653475414 3.1415926536 3.0574329311 2.718901062 2.7598010554 2.8058000847 2.8576792927 2.91630358 
2.9825888767 3.0574329311 3.1415926536 2.718901062 2.7598010554 2.8307207459 2.8058000847 2.8800620952 2.95115522 
2.8576792927 2.9351694502 3.00855263 3.0774230472 2.91630358 2.9967168029 3.0719036933 3.1415926536 3.0774230472 
2.9825888767 3.0653475414 3.1415926536 3.0719036933 3.00855263 2.95115522 3.0574329311 3.1415926536 3.0653475414 