# vtk DataFile Version 5.1
vtk output
ASCII
DATASET POLYDATA
POINTS 1002 float
-10.8409 -0.0273109 -3.32159 10.8475 -1.04219 -2.93379 -10.068 0.896073 3.67555 
9.78835 -1.13174 1.91595 -3.00563 2.37382 -2.60144 -2.41596 1.84835 1.05372 
-1.09447 -6.45807 -2.08908 -0.559594 -7.46116 1.76626 18.662 9.06309 1.65292 
-15.3415 7.88007 0.892609 17.9877 -1.50847 0.117862 -15.82 -3.90194 0.294873 
-9.63701 -0.391526 -3.3747 -8.19767 -0.829372 -3.39598 -6.47207 -1.32245 -3.40177 
-4.37634 -1.81089 -3.37213 -1.89243 -2.24545 -3.29977 0.872588 -2.56737 -3.26509 
3.72324 -2.61215 -3.29791 6.42551 -2.2723 -3.28523 8.81196 -1.68235 -3.14777 
-10.5459 0.499643 -3.39283 -10.1565 1.07341 -3.46072 -9.66647 1.66595 -3.575 
-9.0373 2.18325 -3.68888 -8.20253 2.56501 -3.67832 -7.14041 2.85888 -3.52121 
-5.99999 3.06588 -3.29408 -4.97042 3.06503 -3.05292 -4.02157 2.80012 -2.82066 
-10.3352 -0.759758 -3.25923 -9.6686 -1.56335 -3.18911 -8.84552 -2.43205 -3.11687 
-7.879 -3.25798 -2.9855 -6.77504 -3.98106 -2.81429 -5.58365 -4.6426 -2.66024 
-4.39099 -5.22079 -2.48386 -3.23439 -5.68924 -2.29701 -2.12421 -6.09696 -2.1719 
-11.7815 0.679355 -3.26975 -12.7081 1.506 -3.14445 -13.6238 2.39323 -2.96357 
-14.5214 3.3496 -2.71628 -15.3133 4.45901 -2.33236 -15.8592 5.57587 -1.7971 
-16.0969 6.44853 -1.15337 -16.0615 7.0917 -0.43286 -15.7965 7.58735 0.285752 
-11.6692 -0.178496 -3.18606 -12.4792 -0.412352 -2.98406 -13.27 -0.689128 -2.76245 
-14.0061 -0.997442 -2.49315 -14.6247 -1.40294 -2.10716 -15.151 -1.90882 -1.73008 
-15.5779 -2.44537 -1.42246 -15.8126 -2.99146 -0.978085 -15.8652 -3.50656 -0.34366 
10.3641 -0.786699 -2.95233 9.72506 -0.574888 -3.01022 8.8251 -0.390849 -3.05333 
7.60291 -0.242138 -2.99251 6.07625 -0.167467 -2.86877 4.17187 -0.11775 -2.79672 
1.91005 0.103286 -2.76256 -0.278914 0.645476 -2.71454 -1.93268 1.45448 -2.66242 
10.0528 -1.73612 -3.05293 9.08474 -2.45741 -3.11838 7.86704 -3.18327 -3.15638 
6.49876 -3.88602 -3.14815 5.17031 -4.50539 -2.99659 3.8261 -5.02906 -2.76969 
2.37532 -5.50301 -2.624 0.998506 -5.91433 -2.51091 -0.141719 -6.22459 -2.32476 
12.5083 -0.158967 -2.68415 14.2145 0.886646 -2.43554 15.8444 2.11863 -2.1853 
17.2969 3.58605 -1.75693 18.4917 5.24741 -1.10148 19.2916 6.88817 -0.475566 
19.5829 8.22568 0.0200464 19.4355 9.04664 0.552067 19.0652 9.28917 1.1431 
12.2807 -0.839219 -2.80308 13.6854 -0.643957 -2.68334 14.9888 -0.413295 -2.52605 
16.1672 -0.175354 -2.26386 17.1409 -0.0223463 -1.88025 17.7791 -0.0213543 -1.47147 
18.1185 -0.229978 -1.11883 18.2783 -0.638029 -0.745084 18.2468 -1.10627 -0.300635 
-8.81484 0.417585 3.69698 -7.4347 -0.164726 3.67757 -5.8972 -0.869927 3.52023 
-4.12317 -1.64343 3.18417 -2.00689 -2.31417 2.78321 0.478965 -2.68411 2.44537 
3.10442 -2.64515 2.19267 5.55761 -2.26992 2.01157 7.76219 -1.73407 1.90994 
-9.53387 1.32249 3.65244 -8.96627 1.72176 3.51657 -8.32265 2.07619 3.30607 
-7.55595 2.37094 3.0901 -6.7022 2.56566 2.82833 -5.82977 2.64279 2.49179 
-4.96826 2.6182 2.14048 -4.12205 2.4718 1.7835 -3.27669 2.19222 1.40694 
-9.81762 0.18323 3.69984 -9.53348 -0.532844 3.82568 -9.20406 -1.29034 3.94167 
-8.63347 -2.23955 3.75333 -7.62386 -3.39665 3.26663 -6.25886 -4.513 2.82568 
-4.73467 -5.42853 2.53949 -3.17167 -6.22945 2.28436 -1.72819 -6.94375 2.02467 
-10.9294 1.6276 3.65351 -11.7408 2.37669 3.52645 -12.503 3.11591 3.26699 
-13.2422 3.91782 3.03279 -13.8861 4.77663 2.85032 -14.3945 5.58045 2.56903 
-14.8512 6.34175 2.21298 -15.2335 7.07428 1.85198 -15.4071 7.62469 1.41849 
-11.1804 0.84972 3.62827 -12.3385 0.677867 3.55925 -13.4383 0.331084 3.43171 
-14.4473 -0.189675 3.14358 -15.3233 -0.801315 2.72546 -15.9813 -1.47277 2.3122 
-16.3693 -2.25406 1.89141 -16.4484 -3.04914 1.38871 -16.2281 -3.62952 0.835024 
9.07408 -1.0148 1.81685 8.17181 -0.926842 1.70184 7.04 -0.815834 1.67112 
5.70544 -0.719416 1.63462 4.23566 -0.642374 1.51955 2.68191 -0.477407 1.40682 
1.1328 -0.160014 1.29438 -0.275475 0.331412 1.15964 -1.45812 1.02091 1.07531 
9.21154 -1.72123 1.88389 8.5858 -2.39294 1.81235 7.76746 -3.12791 1.76202 
6.66079 -3.89811 1.73898 5.46784 -4.64078 1.75305 4.40537 -5.30441 1.87051 
3.33566 -5.93508 2.00556 2.07778 -6.55823 1.99663 0.71957 -7.08749 1.8771 
11.4742 -0.287783 2.02715 13.3394 0.82058 2.30365 15.1444 2.16374 2.71832 
16.6695 3.63394 3.09255 17.8186 5.12298 3.24977 18.5289 6.51785 3.24793 
18.7999 7.7057 3.14878 18.7999 8.5839 2.82959 18.7338 9.04481 2.27514 
11.4359 -0.82845 1.97443 13.1083 -0.516008 2.00395 14.6892 -0.200844 2.06671 
16.0918 0.0193737 2.20632 17.2094 -0.000486744 2.25576 17.9058 -0.208735 2.02046 
18.1812 -0.469189 1.58248 18.2112 -0.791199 1.1159 18.1426 -1.16844 0.639731 
-2.85565 2.6413 -2.37591 -2.70608 2.83368 -2.04454 -2.58175 2.96681 -1.65384 
-2.48861 3.08486 -1.26931 -2.44225 3.14518 -0.852261 -2.43722 3.04934 -0.355354 
-2.4332 2.80395 0.13945 -2.41816 2.4953 0.535389 -2.41114 2.1717 0.826876 
-0.989673 1.4315 -2.42888 1.82225 1.01839 -2.21906 4.97514 1.36658 -1.91894 
8.01095 2.10483 -1.49779 10.9364 2.92941 -0.983178 13.6525 4.0472 -0.44922 
15.7555 5.49252 0.0621873 17.1476 6.94775 0.572894 18.0461 8.17773 1.10743 
-4.33423 3.70089 -2.65882 -5.49409 5.0639 -2.67935 -6.78231 6.19737 -2.51941 
-8.19499 6.93232 -2.05553 -9.60238 7.3288 -1.43632 -10.9703 7.66891 -0.915684 
-12.2322 8.02969 -0.477309 -13.3743 8.21959 0.00155319 -14.4353 8.15247 0.485919 
-0.786495 1.05739 0.766656 1.33991 0.662138 0.575407 3.89412 0.849193 0.491315 
6.79537 1.47277 0.570188 9.96384 2.40954 0.885092 12.995 3.73712 1.26069 
15.3508 5.31544 1.47392 16.9055 6.81245 1.58608 17.9064 8.07695 1.67345 
-3.76207 3.03319 1.2523 -5.04164 4.27913 1.40837 -6.32127 5.40729 1.49367 
-7.60762 6.4451 1.60106 -8.86717 7.37611 1.76925 -10.1297 7.99845 1.83788 
-11.4556 8.25707 1.68517 -12.8416 8.29793 1.42148 -14.1877 8.18104 1.16686 
-1.06159 -6.79626 -1.85541 -1.06656 -7.13432 -1.53803 -1.0922 -7.48669 -1.16802 
-1.14381 -7.8701 -0.791903 -1.23593 -8.20827 -0.361231 -1.28146 -8.37688 0.183134 
-1.16983 -8.3479 0.751718 -0.940438 -8.16558 1.20715 -0.714852 -7.85956 1.52594 
0.551272 -6.62133 -2.1403 2.48306 -6.66345 -2.15014 4.69148 -6.5511 -2.12674 
6.96261 -6.33774 -2.12509 9.19053 -5.99217 -2.15282 11.5852 -5.33854 -2.0667 
14.0407 -4.36884 -1.69382 15.9846 -3.3252 -1.08221 17.1972 -2.37587 -0.437829 
-2.6761 -6.46504 -1.90763 -4.42541 -6.46909 -1.74447 -6.19741 -6.41862 -1.54711 
-7.86279 -6.28119 -1.28788 -9.53515 -6.09851 -1.07083 -11.2047 -5.81239 -0.89805 
-12.6407 -5.34648 -0.63378 -13.8329 -4.83317 -0.291046 -14.9009 -4.38372 0.0252829 
1.22654 -7.50408 1.51875 3.15848 -7.25784 1.20567 5.3879 -6.92362 0.872862 
7.86566 -6.64253 0.584028 10.3423 -6.25082 0.383644 12.5867 -5.53143 0.271442 
14.4606 -4.51773 0.21226 15.9413 -3.42568 0.179735 17.0921 -2.4187 0.157225 
-2.50036 -7.41872 1.83605 -4.62822 -7.24924 1.86443 -6.81383 -7.10582 1.87168 
-8.87772 -6.96309 1.93566 -10.681 -6.67322 1.96763 -12.15 -6.23249 1.77803 
-13.3262 -5.71195 1.41586 -14.3179 -5.1408 1.05135 -15.155 -4.53673 0.697411 
19.4989 9.81672 1.87768 20.5125 9.88435 1.97261 21.5179 8.89137 1.91658 
22.1061 7.14702 1.73617 22.1269 5.42612 1.48305 21.7868 3.97096 1.21448 
21.1355 2.51477 0.952323 20.1245 1.0168 0.682771 18.9895 -0.34938 0.40074 
-16.3883 7.29375 0.878509 -17.1911 6.42353 0.776564 -17.7579 5.28514 0.626913 
-18.253 3.99616 0.447394 -18.6001 2.6729 0.212546 -18.516 1.26504 -0.0101191 
-18.0313 -0.290659 -0.0821504 -17.3857 -1.80447 0.00912921 -16.6505 -3.02349 0.162549 
-9.26223 0.0780938 -3.46538 -8.80873 0.585282 -3.56796 -7.71748 -0.421226 -3.50889 
-8.2421 1.0835 -3.62596 -7.11828 -0.0125403 -3.59314 -5.78558 -0.980603 -3.49893 
-7.49313 1.50645 -3.57374 -6.36821 0.36505 -3.54482 -4.92043 -0.684745 -3.5265 
-3.38957 -1.54203 -3.40794 -6.51738 1.85406 -3.45099 -5.44958 0.709753 -3.42723 
-3.93034 -0.431724 -3.47123 -2.24005 -1.34651 -3.42218 -0.610337 -2.0269 -3.30934 
-5.4002 2.07515 -3.30338 -4.34167 0.952909 -3.33858 -2.77259 -0.214689 -3.40818 
-0.950374 -1.16373 -3.4169 0.829581 -1.81173 -3.35125 2.40453 -2.26765 -3.3045 
-4.28884 2.0394 -3.1062 -3.08426 0.946728 -3.19657 -1.33816 -0.114777 -3.28017 
0.628595 -0.934478 -3.30419 2.50378 -1.45713 -3.30406 4.11912 -1.80719 -3.31354 
5.40974 -2.06836 -3.31286 -3.16713 1.77059 -2.87721 -1.72462 0.760599 -2.95963 
0.288484 -0.0809246 -3.03352 2.44155 -0.618089 -3.0586 4.36167 -0.900665 -3.10029 
5.9569 -1.10257 -3.1799 7.19179 -1.30089 -3.21583 8.10385 -1.48915 -3.19067 
-11.4745 1.33331 -3.30511 -12.3829 2.25127 -3.14796 -11.0344 2.01216 -3.36492 
-13.2736 3.19895 -2.94855 -11.8861 2.9777 -3.213 -10.4421 2.67126 -3.53513 
-14.0964 4.28441 -2.64402 -12.7104 3.99856 -2.95831 -11.1895 3.69906 -3.35761 
-9.68652 3.22212 -3.69365 -14.7118 5.50588 -2.15064 -13.3826 5.18955 -2.52203 
-11.8939 4.82557 -2.92356 -10.3168 4.34653 -3.40146 -8.71205 3.61319 -3.64839 
-15.0171 6.53771 -1.51107 -13.748 6.33676 -1.92489 -12.3595 5.9685 -2.31628 
-10.8582 5.53117 -2.79222 -9.19475 4.80433 -3.28157 -7.49174 3.90722 -3.4349 
-15.0353 7.2468 -0.818105 -13.8195 7.15772 -1.26069 -12.4986 6.8438 -1.67982 
-11.1021 6.49402 -2.11718 -9.54655 5.96555 -2.68237 -7.81656 5.0962 -3.11717 
-6.24907 4.10776 -3.18202 -14.8255 7.78014 -0.134579 -13.6821 7.7497 -0.607219 
-12.4332 7.47149 -1.05922 -11.0861 7.12816 -1.49243 -9.64672 6.78862 -2.04801 
-8.06977 6.18194 -2.63142 -6.50692 5.22623 -2.93173 -5.22145 4.06588 -2.92502 
-13.1662 8.45993 0.726293 -11.7586 8.60271 0.97498 -12.0563 8.5064 0.202301 
-10.3519 8.53711 1.22484 -10.6204 8.6458 0.427404 -10.8618 8.26158 -0.300092 
-9.02867 8.107 1.35676 -9.19359 8.49071 0.660678 -9.38128 8.35028 -0.129121 
-9.52017 7.85283 -0.820835 -7.7465 7.23753 1.31833 -7.84461 7.87734 0.825518 
-7.94227 8.10465 0.0604895 -8.04672 7.87909 -0.75169 -8.13576 7.43811 -1.4539 
-6.44271 6.10833 1.20036 -6.52885 6.82699 0.834474 -6.59026 7.37085 0.219535 
-6.66996 7.51062 -0.601842 -6.76503 7.26534 -1.3775 -6.80795 6.80787 -2.01394 
-5.14223 4.85141 1.08537 -5.22852 5.46795 0.712531 -5.28466 6.08495 0.218771 
[...]
POINT_DATA 1002
FIELD FieldData 4
_paraPhi 1 1002 double
6.2831853072 3.1415926536 6.2831853072 3.1415926536 4.7123889804 4.7123889804 1.5707963268 1.5707963268 3.6951670125 
5.7296109483 2.5880182947 0.5535743589 6.2831853072 6.2831853072 6.2831853072 6.2831853072 3.1415926536 3.1415926536 
3.1415926536 3.1415926536 3.1415926536 6.1053039672 5.898798347 5.6768734901 5.4599499503 5.2659633393 5.1032165617 
4.9713148346 4.8656852733 4.7809517865 0.17788134 0.38438696014 0.60631181711 0.82323535693 1.0172219679 1.1799687454 
1.3118704726 1.4175000338 1.5022335207 6.1892828907 6.1070320098 6.035312792 5.9728339911 5.9183214791 5.8706119594 
5.8286879411 5.7916808611 5.7588591896 0.093902416448 0.17615329733 0.2478725152 0.31035131605 0.36486382811 0.41257334776 
0.45449736604 0.4915044461 0.52432611754 3.3194739936 3.5259796137 3.7479044707 3.9648280105 4.1588146215 4.321561399 
4.4534631262 4.5590926874 4.6438261743 2.9637113136 2.7572056934 2.5352808365 2.3183572967 2.1243706857 1.9616239082 
1.829722181 1.7240926197 1.6393591329 3.23549507 3.3177459509 3.3894651688 3.4519439696 3.5064564817 3.5541660013 
3.5960900196 3.6330970997 3.6659187711 3.0476902371 2.9654393563 2.8937201384 2.8312413375 2.7767288255 2.7290193058 
2.6870952876 2.6500882075 2.617266536 6.2831853072 6.2831853072 6.2831853072 6.2831853072 3.1415926536 3.1415926536 
3.1415926536 3.1415926536 3.1415926536 6.1053039672 5.898798347 5.6768734901 5.4599499503 5.2659633393 5.1032165617 
4.9713148346 4.8656852733 4.7809517865 0.17788134 0.38438696014 0.60631181711 0.82323535693 1.0172219679 1.1799687454 
1.3118704726 1.4175000338 1.5022335207 6.1892828907 6.1070320098 6.035312792 5.9728339911 5.9183214791 5.8706119594 
5.8286879411 5.7916808611 5.7588591896 0.093902416448 0.17615329733 0.2478725152 0.31035131605 0.36486382811 0.41257334776 
0.45449736604 0.4915044461 0.52432611754 3.3194739936 3.5259796137 3.7479044707 3.9648280105 4.1588146215 4.321561399 
4.4534631262 4.5590926874 4.6438261743 2.9637113136 2.7572056934 2.5352808365 2.3183572967 2.1243706857 1.9616239082 
1.829722181 1.7240926197 1.6393591329 3.23549507 3.3177459509 3.3894651688 3.4519439696 3.5064564817 3.5541660013 
3.5960900196 3.6330970997 3.6659187711 3.0476902371 2.9654393563 2.8937201384 2.8312413375 2.7767288255 2.7290193058 
2.6870952876 2.6500882075 2.617266536 4.7123889804 4.7123889804 4.7123889804 4.7123889804 4.7123889804 4.7123889804 
4.7123889804 4.7123889804 4.7123889804 4.6087898617 4.4991390697 4.3857031936 4.2712800401 4.1588146215 4.0509635631 
3.94975894 3.8564636551 3.7716124825 4.8159880991 4.9256388911 5.0390747672 5.1534979207 5.2659633393 5.3738143976 
5.4750190208 5.5683143056 5.6531654782 4.6087898617 4.4991390697 4.3857031936 4.2712800401 4.1588146215 4.0509635631 
3.94975894 3.8564636551 3.7716124825 4.8159880991 4.9256388911 5.0390747672 5.1534979207 5.2659633393 5.3738143976 
5.4750190208 5.5683143056 5.6531654782 1.5707963268 1.5707963268 1.5707963268 1.5707963268 1.5707963268 1.5707963268 
1.5707963268 1.5707963268 1.5707963268 1.6743954455 1.7840462375 1.8974821136 2.0119052671 2.1243706857 2.232221744 
2.3334263672 2.426721652 2.5115728246 1.4671972081 1.3575464161 1.24411054 1.1296873865 1.0172219679 0.90937090954 
0.80816628637 0.71487100155 0.63001982895 1.6743954455 1.7840462375 1.8974821136 2.0119052671 2.1243706857 2.232221744 
2.3334263672 2.426721652 2.5115728246 1.4671972081 1.3575464161 1.24411054 1.1296873865 1.0172219679 0.90937090954 
0.80816628637 0.71487100155 0.63001982895 3.6007720849 3.4966939854 3.3839471039 3.2645756454 3.1415926536 3.0186096618 
2.8992382033 2.7864913217 2.6824132222 5.8240058758 5.9280839753 6.0408308569 6.1602023154 6.2831853072 0.12298299178 
0.2423544503 0.35510133185 0.45917943135 6.0560271438 5.7885595667 5.9702140275 5.5125918794 5.6029703303 5.7885595667 
5.2659633393 5.2659633393 5.2659633393 5.2659633393 5.0674903122 5.0120975802 4.9155579264 4.7123889804 4.1588146215 
4.9155579264 4.8353719722 4.7123889804 4.5092200343 4.1588146215 3.6362183941 4.8004512023 4.7123889804 4.5894059886 
4.4126803806 4.1588146215 3.8218076305 3.4545639333 4.7123889804 4.6243267584 4.5092200343 4.3572876485 4.1588146215 
3.9121860814 3.6362183941 3.368750817 6.0174235957 5.9434319871 5.8263323547 5.8809213739 5.7674481418 5.6279784266 
5.8278025282 5.718968232 5.5891129425 5.4372443565 5.7823484065 5.678536687 5.5575666702 5.4192596322 5.2659633393 
5.743164462 5.6444075337 5.5314983644 5.4046708639 5.2659633393 5.1195510325 5.7091357773 5.6152775188 5.5096229709 
5.3926039573 5.2659633393 5.1329233157 4.9978930058 5.6793730533 5.5901633916 5.4910209005 5.3824597928 5.2659633393 
5.1440684722 5.0201624502 4.8979782167 5.5683143056 5.4750190208 5.4750190208 5.3738143976 5.3738143976 5.3738143976 
5.2659633393 5.2659633393 5.2659633393 5.2659633393 5.1534979207 5.1534979207 5.1534979207 5.1534979207 5.1534979207 
5.0390747672 5.0390747672 5.0390747672 5.0390747672 5.0390747672 5.0390747672 4.9256388911 4.9256388911 4.9256388911 
4.9256388911 4.9256388911 4.9256388911 4.9256388911 4.8159880991 4.8159880991 4.8159880991 4.8159880991 4.8159880991 
4.8159880991 4.8159880991 4.8159880991 4.6087898617 4.6087898617 4.4991390697 4.6087898617 4.4991390697 4.3857031936 
4.6087898617 4.4991390697 4.3857031936 4.2712800401 4.6087898617 4.4991390697 4.3857031936 4.2712800401 4.1588146215 
4.6087898617 4.4991390697 4.3857031936 4.2712800401 4.1588146215 4.0509635631 4.6087898617 4.4991390697 4.3857031936 
4.2712800401 4.1588146215 4.0509635631 3.94975894 4.6087898617 4.4991390697 4.3857031936 4.2712800401 4.1588146215 
4.0509635631 3.94975894 3.8564636551 4.526799744 4.4046155105 4.426884955 4.2807094886 4.2918546451 4.3052269283 
4.1588146215 4.1588146215 4.1588146215 4.1588146215 4.042318168 4.0321740035 4.0201070968 4.0055183285 3.9875336042 
3.9337570603 3.9151549899 3.8932795963 3.8672112905 3.8356650183 3.7967995342 3.8346145692 3.809500442 3.7803704271 
3.7462412737 3.7058097288 3.657329819 3.5984456061 3.7454049075 3.7156421835 3.6816134988 3.6424295543 3.5969754326 
3.5438565869 3.4813459737 3.4073543651 3.5642842451 3.4524645613 3.5233842518 3.3320300872 3.403123212 3.4773852225 
3.20576226 3.2746326772 3.348015857 3.4255060145 3.0774230472 3.1415926536 3.2112816139 3.2864685043 3.3668817272 
2.95115522 3.00855263 3.0719036933 3.1415926536 3.2178377658 3.3005964304 2.8307207459 2.8800620952 2.9351694502 
2.9967168029 3.0653475414 3.1415926536 3.225752376 2.718901062 2.7598010554 2.8058000847 2.8576792927 2.91630358 
2.9825888767 3.0574329311 3.1415926536 3.5642842451 3.5233842518 3.4524645613 3.4773852225 3.403123212 3.3320300872 
3.4255060145 3.348015857 3.2746326772 3.20576226 3.3668817272 3.2864685043 3.2112816139 3.1415926536 3.0774230472 
3.3005964304 3.2178377658 3.1415926536 3.0719036933 3.00855263 2.95115522 3.225752376 3.1415926536 3.0653475414 
2.9967168029 2.9351694502 2.8800620952 2.8307207459 3.1415926536 3.0574329311 2.9825888767 2.91630358 2.8576792927 
2.8058000847 2.7598010554 2.718901062 4.526799744 4.426884955 4.4046155105 4.3052269283 4.2918546451 4.2807094886 
4.1588146215 4.1588146215 4.1588146215 4.1588146215 3.9875336042 4.0055183285 4.0201070968 4.0321740035 4.042318168 
3.7967995342 3.8356650183 3.8672112905 3.8932795963 3.9151549899 3.9337570603 3.5984456061 3.657329819 3.7058097288 
3.7462412737 3.7803704271 3.809500442 3.8346145692 3.4073543651 3.4813459737 3.5438565869 3.5969754326 3.6424295543 
3.6816134988 3.7156421835 3.7454049075 4.7123889804 4.8004512023 4.6243267584 4.9155579264 4.7123889804 4.5092200343 
5.0674903122 4.8353719722 4.5894059886 4.3572876485 5.2659633393 5.0120975802 4.7123889804 4.4126803806 4.1588146215 
5.5125918794 5.2659633393 4.9155579264 4.5092200343 4.1588146215 3.9121860814 5.7885595667 5.6029703303 5.2659633393 
4.7123889804 4.1588146215 3.8218076305 3.6362183941 6.0560271438 5.9702140275 5.7885595667 5.2659633393 4.1588146215 
3.6362183941 3.4545639333 3.368750817 0.22715816343 0.49462574053 0.3129712797 0.77059342779 0.68021497688 0.49462574053 
1.0172219679 1.0172219679 1.0172219679 1.0172219679 1.2156949949 1.271087727 1.3676273807 1.5707963268 2.1243706857 
1.3676273807 1.447813335 1.5707963268 1.7739652728 2.1243706857 2.6469669131 1.4827341049 1.5707963268 1.6937793186 
1.8705049266 2.1243706857 2.4613776767 2.8286213739 1.5707963268 1.6588585487 1.7739652728 1.9258976586 2.1243706857 
2.3709992258 2.6469669131 2.9144344902 1.7563855631 1.8785697967 1.8563003522 2.0024758186 1.9913306621 1.9779583789 
2.1243706857 2.1243706857 2.1243706857 2.1243706857 2.2408671392 2.2510113037 2.2630782103 2.2776669786 2.295651703 
2.3494282469 2.3680303173 2.3899057108 2.4159740166 2.4475202889 2.486385773 2.448570738 2.4736848652 2.5028148801 
2.5369440334 2.5773755784 2.6258554882 2.6847397011 2.5377803997 2.5675431237 2.6015718084 2.6407557529 2.6862098746 
2.7393287203 2.8018393335 2.8758309421 1.6743954455 1.6743954455 1.7840462375 1.6743954455 1.7840462375 1.8974821136 
1.6743954455 1.7840462375 1.8974821136 2.0119052671 1.6743954455 1.7840462375 1.8974821136 2.0119052671 2.1243706857 
1.6743954455 1.7840462375 1.8974821136 2.0119052671 2.1243706857 2.232221744 1.6743954455 1.7840462375 1.8974821136 
2.0119052671 2.1243706857 2.232221744 2.3334263672 1.6743954455 1.7840462375 1.8974821136 2.0119052671 2.1243706857 
2.232221744 2.3334263672 2.426721652 1.4671972081 1.3575464161 1.4671972081 1.24411054 1.3575464161 1.4671972081 
1.1296873865 1.24411054 1.3575464161 1.4671972081 1.0172219679 1.1296873865 1.24411054 1.3575464161 1.4671972081 
0.90937090954 1.0172219679 1.1296873865 1.24411054 1.3575464161 1.4671972081 0.80816628637 0.90937090954 1.0172219679 
1.1296873865 1.24411054 1.3575464161 1.4671972081 0.71487100155 0.80816628637 0.90937090954 1.0172219679 1.1296873865 
1.24411054 1.3575464161 1.4671972081 0.60381225391 0.57404952988 0.69302191562 0.54002084522 0.66790778838 0.79216440667 
0.50083690068 0.63877777351 0.77356233629 0.90072551443 0.45538277901 0.60464862014 0.75168694275 0.89058134991 1.0172219679 
0.40226393329 0.56421707518 0.72561863695 0.87851444325 1.0172219679 1.139116835 0.33975332011 0.51573716537 0.69407236469 
0.86392567495 1.0172219679 1.1502619915 1.2630228569 0.26576171152 0.45685295248 0.6552068806 0.84594095064 1.0172219679 
1.1636342747 1.2852923014 1.3852070904 0.22715816343 0.3129712797 0.49462574053 0.49462574053 0.68021497688 0.77059342779 
1.0172219679 1.0172219679 1.0172219679 1.0172219679 2.1243706857 1.5707963268 1.3676273807 1.271087727 1.2156949949 
2.6469669131 2.1243706857 1.7739652728 1.5707963268 1.447813335 1.3676273807 2.8286213739 2.4613776767 2.1243706857 
1.8705049266 1.6937793186 1.5707963268 1.4827341049 2.9144344902 2.6469669131 2.3709992258 2.1243706857 1.9258976586 
1.7739652728 1.6588585487 1.5707963268 1.7563855631 1.8563003522 1.8785697967 1.9779583789 1.9913306621 2.0024758186 
2.1243706857 2.1243706857 2.1243706857 2.1243706857 2.295651703 2.2776669786 2.2630782103 2.2510113037 2.2408671392 
2.486385773 2.4475202889 2.4159740166 2.3899057108 2.3680303173 2.3494282469 2.6847397011 2.6258554882 2.5773755784 
2.5369440334 2.5028148801 2.4736848652 2.448570738 2.8758309421 2.8018393335 2.7393287203 2.6862098746 2.6407557529 
2.6015718084 2.5675431237 2.5377803997 5.8604937156 5.901393709 5.9723133995 5.9473927383 6.0216547488 6.0927478736 
5.9992719463 6.0767621038 6.1501452836 6.2190157008 6.0578962336 6.1383094565 6.2134963469 0 0.064169606361 
6.1241815303 6.206940195 6.2831853072 0.069688960264 0.13304002361 0.19043743361 6.1990255847 0 0.07624511221 
0.14487585072 0.20642320337 0.26153055843 0.3108719077 0 0.084159722458 0.15900377685 0.22528907359 0.28391336087 
0.3357925689 0.38179159818 0.42269159155 5.8604937156 5.9723133995 5.901393709 6.0927478736 6.0216547488 5.9473927383 
6.2190157008 6.1501452836 6.0767621038 5.9992719463 0.064169606361 0 6.2134963469 6.1383094565 6.0578962336 
0.19043743361 0.13304002361 0.069688960264 6.2831853072 6.206940195 6.1241815303 0.3108719077 0.26153055843 0.20642320337 
0.14487585072 0.07624511221 6.2831853072 6.1990255847 0.42269159155 0.38179159818 0.3357925689 0.28391336087 0.22528907359 
0.15900377685 0.084159722458 0 5.6793730533 5.7091357773 5.5901633916 5.743164462 5.6152775188 5.4910209005 
5.7823484065 5.6444075337 5.5096229709 5.3824597928 5.8278025282 5.678536687 5.5314983644 5.3926039573 5.2659633393 
5.8809213739 5.718968232 5.5575666702 5.4046708639 5.2659633393 5.1440684722 5.9434319871 5.7674481418 5.5891129425 
5.4192596322 5.2659633393 5.1329233157 5.0201624502 6.0174235957 5.8263323547 5.6279784266 5.4372443565 5.2659633393 
5.1195510325 4.9978930058 4.8979782167 1.3852070904 1.2852923014 1.2630228569 1.1636342747 1.1502619915 1.139116835 
1.0172219679 1.0172219679 1.0172219679 1.0172219679 0.84594095064 0.86392567495 0.87851444325 0.89058134991 0.90072551443 
0.6552068806 0.69407236469 0.72561863695 0.75168694275 0.77356233629 0.79216440667 0.45685295248 0.51573716537 0.56421707518 
0.60464862014 0.63877777351 0.66790778838 0.69302191562 0.26576171152 0.33975332011 0.40226393329 0.45538277901 0.50083690068 
0.54002084522 0.57404952988 0.60381225391 
_paraPhiHalf 1 1002 double
0 3.1415926536 0 3.1415926536 1.5707963268 1.5707963268 1.5707963268 1.5707963268 2.5880182947 
0.5535743589 2.5880182947 0.5535743589 0 0 0 0 3.1415926536 3.1415926536 
3.1415926536 3.1415926536 3.1415926536 0.17788134 0.38438696014 0.60631181711 0.82323535693 1.0172219679 1.1799687454 
1.3118704726 1.4175000338 1.5022335207 0.17788134 0.38438696014 0.60631181711 0.82323535693 1.0172219679 1.1799687454 
1.3118704726 1.4175000338 1.5022335207 0.093902416448 0.17615329733 0.2478725152 0.31035131605 0.36486382811 0.41257334776 
0.45449736604 0.4915044461 0.52432611754 0.093902416448 0.17615329733 0.2478725152 0.31035131605 0.36486382811 0.41257334776 
0.45449736604 0.4915044461 0.52432611754 2.9637113136 2.7572056934 2.5352808365 2.3183572967 2.1243706857 1.9616239082 
1.829722181 1.7240926197 1.6393591329 2.9637113136 2.7572056934 2.5352808365 2.3183572967 2.1243706857 1.9616239082 
1.829722181 1.7240926197 1.6393591329 3.0476902371 2.9654393563 2.8937201384 2.8312413375 2.7767288255 2.7290193058 
2.6870952876 2.6500882075 2.617266536 3.0476902371 2.9654393563 2.8937201384 2.8312413375 2.7767288255 2.7290193058 
2.6870952876 2.6500882075 2.617266536 0 0 0 0 3.1415926536 3.1415926536 
3.1415926536 3.1415926536 3.1415926536 0.17788134 0.38438696014 0.60631181711 0.82323535693 1.0172219679 1.1799687454 
1.3118704726 1.4175000338 1.5022335207 0.17788134 0.38438696014 0.60631181711 0.82323535693 1.0172219679 1.1799687454 
1.3118704726 1.4175000338 1.5022335207 0.093902416448 0.17615329733 0.2478725152 0.31035131605 0.36486382811 0.41257334776 
0.45449736604 0.4915044461 0.52432611754 0.093902416448 0.17615329733 0.2478725152 0.31035131605 0.36486382811 0.41257334776 
0.45449736604 0.4915044461 0.52432611754 2.9637113136 2.7572056934 2.5352808365 2.3183572967 2.1243706857 1.9616239082 
1.829722181 1.7240926197 1.6393591329 2.9637113136 2.7572056934 2.5352808365 2.3183572967 2.1243706857 1.9616239082 
1.829722181 1.7240926197 1.6393591329 3.0476902371 2.9654393563 2.8937201384 2.8312413375 2.7767288255 2.7290193058 
2.6870952876 2.6500882075 2.617266536 3.0476902371 2.9654393563 2.8937201384 2.8312413375 2.7767288255 2.7290193058 
2.6870952876 2.6500882075 2.617266536 1.5707963268 1.5707963268 1.5707963268 1.5707963268 1.5707963268 1.5707963268 
1.5707963268 1.5707963268 1.5707963268 1.6743954455 1.7840462375 1.8974821136 2.0119052671 2.1243706857 2.232221744 
2.3334263672 2.426721652 2.5115728246 1.4671972081 1.3575464161 1.24411054 1.1296873865 1.0172219679 0.90937090954 
0.80816628637 0.71487100155 0.63001982895 1.6743954455 1.7840462375 1.8974821136 2.0119052671 2.1243706857 2.232221744 
2.3334263672 2.426721652 2.5115728246 1.4671972081 1.3575464161 1.24411054 1.1296873865 1.0172219679 0.90937090954 
0.80816628637 0.71487100155 0.63001982895 1.5707963268 1.5707963268 1.5707963268 1.5707963268 1.5707963268 1.5707963268 
1.5707963268 1.5707963268 1.5707963268 1.6743954455 1.7840462375 1.8974821136 2.0119052671 2.1243706857 2.232221744 
2.3334263672 2.426721652 2.5115728246 1.4671972081 1.3575464161 1.24411054 1.1296873865 1.0172219679 0.90937090954 
0.80816628637 0.71487100155 0.63001982895 1.6743954455 1.7840462375 1.8974821136 2.0119052671 2.1243706857 2.232221744 
2.3334263672 2.426721652 2.5115728246 1.4671972081 1.3575464161 1.24411054 1.1296873865 1.0172219679 0.90937090954 
0.80816628637 0.71487100155 0.63001982895 2.6824132222 2.7864913217 2.8992382033 3.0186096618 3.1415926536 3.0186096618 
2.8992382033 2.7864913217 2.6824132222 0.45917943135 0.35510133185 0.2423544503 0.12298299178 0 0.12298299178 
0.2423544503 0.35510133185 0.45917943135 0.22715816343 0.49462574053 0.3129712797 0.77059342779 0.68021497688 0.49462574053 
1.0172219679 1.0172219679 1.0172219679 1.0172219679 1.2156949949 1.271087727 1.3676273807 1.5707963268 2.1243706857 
1.3676273807 1.447813335 1.5707963268 1.7739652728 2.1243706857 2.6469669131 1.4827341049 1.5707963268 1.6937793186 
1.8705049266 2.1243706857 2.4613776767 2.8286213739 1.5707963268 1.6588585487 1.7739652728 1.9258976586 2.1243706857 
2.3709992258 2.6469669131 2.9144344902 0.26576171152 0.33975332011 0.45685295248 0.40226393329 0.51573716537 0.6552068806 
0.45538277901 0.56421707518 0.69407236469 0.84594095064 0.50083690068 0.60464862014 0.72561863695 0.86392567495 1.0172219679 
0.54002084522 0.63877777351 0.75168694275 0.87851444325 1.0172219679 1.1636342747 0.57404952988 0.66790778838 0.77356233629 
0.89058134991 1.0172219679 1.1502619915 1.2852923014 0.60381225391 0.69302191562 0.79216440667 0.90072551443 1.0172219679 
1.139116835 1.2630228569 1.3852070904 0.71487100155 0.80816628637 0.80816628637 0.90937090954 0.90937090954 0.90937090954 
1.0172219679 1.0172219679 1.0172219679 1.0172219679 1.1296873865 1.1296873865 1.1296873865 1.1296873865 1.1296873865 
1.24411054 1.24411054 1.24411054 1.24411054 1.24411054 1.24411054 1.3575464161 1.3575464161 1.3575464161 
1.3575464161 1.3575464161 1.3575464161 1.3575464161 1.4671972081 1.4671972081 1.4671972081 1.4671972081 1.4671972081 
1.4671972081 1.4671972081 1.4671972081 1.6743954455 1.6743954455 1.7840462375 1.6743954455 1.7840462375 1.8974821136 
1.6743954455 1.7840462375 1.8974821136 2.0119052671 1.6743954455 1.7840462375 1.8974821136 2.0119052671 2.1243706857 
1.6743954455 1.7840462375 1.8974821136 2.0119052671 2.1243706857 2.232221744 1.6743954455 1.7840462375 1.8974821136 
2.0119052671 2.1243706857 2.232221744 2.3334263672 1.6743954455 1.7840462375 1.8974821136 2.0119052671 2.1243706857 
2.232221744 2.3334263672 2.426721652 1.7563855631 1.8785697967 1.8563003522 2.0024758186 1.9913306621 1.9779583789 
2.1243706857 2.1243706857 2.1243706857 2.1243706857 2.2408671392 2.2510113037 2.2630782103 2.2776669786 2.295651703 
2.3494282469 2.3680303173 2.3899057108 2.4159740166 2.4475202889 2.486385773 2.448570738 2.4736848652 2.5028148801 
2.5369440334 2.5773755784 2.6258554882 2.6847397011 2.5377803997 2.5675431237 2.6015718084 2.6407557529 2.6862098746 
2.7393287203 2.8018393335 2.8758309421 2.718901062 2.8307207459 2.7598010554 2.95115522 2.8800620952 2.8058000847 
3.0774230472 3.00855263 2.9351694502 2.8576792927 3.0774230472 3.1415926536 3.0719036933 2.9967168029 2.91630358 
2.95115522 3.00855263 3.0719036933 3.1415926536 3.0653475414 2.9825888767 2.8307207459 2.8800620952 2.9351694502 
2.9967168029 3.0653475414 3.1415926536 3.0574329311 2.718901062 2.7598010554 2.8058000847 2.8576792927 2.91630358 
2.9825888767 3.0574329311 3.1415926536 2.718901062 2.7598010554 2.8307207459 2.8058000847 2.8800620952 2.95115522 
2.8576792927 2.9351694502 3.00855263 3.0774230472 2.91630358 2.9967168029 3.0719036933 3.1415926536 3.0774230472 
2.9825888767 3.0653475414 3.1415926536 3.0719036933 3.00855263 2.95115522 3.0574329311 3.1415926536 3.0653475414 