# vtk DataFile Version 5.1
vtk output
ASCII
DATASET POLYDATA
POINTS 1002 float
-10.6025 0.0830122 -3.47362 10.975 -1.0941 -2.81212 -9.65423 0.91321 3.81499 
9.92212 -1.27488 2.16953 -2.58152 2.08919 -1.67311 -2.27079 2.22651 1.77403 
-1.0918 -6.71029 -1.68917 -0.506341 -7.41634 2.41092 18.5141 10.0906 0.139829 
-15.7265 8.05799 0.0750918 17.3669 -1.16757 -0.19145 -15.4123 -4.06888 -0.323335 
-9.37168 -0.277681 -3.4204 -7.8736 -0.700589 -3.26454 -6.10636 -1.17522 -2.99302 
-3.98867 -1.77828 -2.7547 -1.32687 -2.47603 -2.62403 1.7532 -2.94583 -2.5697 
4.70943 -2.91683 -2.65015 7.1941 -2.46607 -2.81887 9.24699 -1.81108 -2.88561 
-10.3572 0.641416 -3.50863 -9.97927 1.22123 -3.46449 -9.42683 1.78867 -3.37735 
-8.68944 2.31462 -3.25006 -7.81197 2.8029 -3.01221 -6.88066 3.22463 -2.74772 
-5.91726 3.42692 -2.59766 -4.86103 3.25083 -2.4304 -3.7182 2.73451 -2.08895 
-10.0545 -0.674515 -3.33497 -9.39492 -1.4642 -3.13719 -8.59306 -2.27262 -2.947 
-7.61562 -3.06993 -2.7472 -6.50708 -3.82713 -2.49453 -5.33863 -4.56032 -2.27926 
-4.15541 -5.25471 -2.15522 -3.02622 -5.84123 -2.02525 -2.00701 -6.31141 -1.84967 
-11.6005 0.765212 -3.5408 -12.6009 1.50892 -3.57742 -13.6197 2.37051 -3.5414 
-14.6303 3.43018 -3.39043 -15.4648 4.60373 -3.1302 -16.0002 5.6677 -2.71396 
-16.2846 6.53539 -2.08081 -16.3399 7.24748 -1.32541 -16.1365 7.77495 -0.590876 
-11.4185 -0.104014 -3.46057 -12.261 -0.382045 -3.46595 -13.1029 -0.716801 -3.3872 
-13.8605 -1.10244 -3.13947 -14.4613 -1.58163 -2.85528 -14.9212 -2.15984 -2.61054 
-15.2865 -2.7816 -2.2283 -15.508 -3.35881 -1.62663 -15.5272 -3.79873 -0.946488 
10.5555 -0.77662 -2.80607 9.95638 -0.509831 -2.76849 9.12723 -0.295645 -2.6804 
8.09972 -0.180834 -2.53039 6.89765 -0.268129 -2.3171 5.30646 -0.440776 -2.07019 
3.18649 -0.376304 -1.86102 0.89462 0.0924845 -1.74222 -1.08436 0.949844 -1.69763 
10.2637 -1.89752 -2.85561 9.37836 -2.72922 -2.85732 8.29317 -3.56953 -2.82538 
6.98422 -4.37297 -2.76548 5.50183 -5.06084 -2.65867 3.99691 -5.59772 -2.48194 
2.57141 -5.99733 -2.25841 1.22445 -6.28821 -2.04629 -0.0176695 -6.51491 -1.86586 
12.364 -0.0639698 -2.6886 13.7489 1.16239 -2.59076 15.0732 2.56549 -2.5427 
16.299 4.12979 -2.3995 17.3613 5.76317 -2.0969 18.1961 7.29156 -1.84695 
18.7511 8.62541 -1.68333 18.9508 9.66565 -1.30559 18.8188 10.1866 -0.619276 
12.1708 -0.853332 -2.74765 13.3361 -0.616267 -2.71027 14.4185 -0.389654 -2.65525 
15.4031 -0.190362 -2.4777 16.2989 -0.0487622 -2.18446 17.0579 -0.00833765 -1.87734 
17.5821 -0.115286 -1.53741 17.8032 -0.374993 -1.09906 17.712 -0.743397 -0.620199 
-8.48864 0.480237 3.86751 -7.13338 -0.0590598 3.88057 -5.50669 -0.75974 3.80959 
-3.54567 -1.58011 3.60075 -1.29658 -2.33535 3.27299 1.13858 -2.78073 2.90774 
3.63682 -2.79321 2.58764 6.00795 -2.45814 2.35484 8.10729 -1.9226 2.21659 
-9.27244 1.39489 3.70819 -8.77641 1.87265 3.64546 -8.14976 2.32375 3.6032 
-7.43853 2.70242 3.48614 -6.66427 2.94029 3.26142 -5.80961 3.04007 2.99779 
-4.89584 3.02568 2.73081 -3.97927 2.8703 2.43215 -3.10245 2.58232 2.10138 
-9.27609 0.176384 3.97988 -8.75602 -0.602277 4.12006 -7.99224 -1.51892 4.17047 
-6.95104 -2.64291 4.0954 -5.79145 -3.81301 3.90384 -4.66187 -4.84912 3.63508 
-3.53903 -5.74312 3.34162 -2.41938 -6.47069 3.04451 -1.38887 -7.00625 2.73223 
-10.5379 1.6563 3.64913 -11.4303 2.46722 3.43651 -12.3208 3.28734 3.17797 
-13.1867 4.12433 2.85992 -13.9578 4.97834 2.47936 -14.5899 5.77037 2.08224 
-15.1173 6.48999 1.67302 -15.5234 7.17114 1.19122 -15.7292 7.73194 0.636104 
-10.595 0.844195 3.79989 -11.6606 0.722435 3.62117 -12.8295 0.492339 3.25059 
-14.0124 0.0287742 2.80529 -15.0264 -0.677592 2.32474 -15.6905 -1.42707 1.74149 
-15.9882 -2.13544 1.12703 -16.0008 -2.8854 0.598771 -15.7868 -3.59417 0.133803 
9.3191 -1.07685 2.17376 8.55049 -0.944274 2.14813 7.55049 -0.838311 2.11299 
6.28159 -0.733504 2.1057 4.82781 -0.659299 2.10411 3.27354 -0.550601 2.04697 
1.65159 -0.224707 1.94925 0.0954736 0.403012 1.87299 -1.22552 1.26135 1.82388 
9.34405 -1.9633 2.16334 8.6032 -2.69897 2.16866 7.68848 -3.46096 2.19016 
6.65613 -4.26845 2.25787 5.54769 -5.08264 2.375 4.33893 -5.76795 2.4799 
3.05017 -6.29539 2.52165 1.77489 -6.75389 2.50828 0.584156 -7.14499 2.46802 
11.3288 -0.344414 2.20952 12.8007 0.777794 2.30433 14.2202 2.04471 2.40307 
15.4878 3.44111 2.44037 16.6324 4.91269 2.35439 17.617 6.32007 2.12704 
18.257 7.65306 1.79917 18.5223 8.9099 1.3654 18.5745 9.81186 0.788095 
11.3114 -0.980169 2.17077 12.6839 -0.679547 2.2072 13.9556 -0.427154 2.21876 
15.0689 -0.283505 2.09982 15.9611 -0.257328 1.86169 16.5807 -0.317098 1.5701 
16.9565 -0.465944 1.19091 17.1824 -0.695339 0.724279 17.3276 -0.939534 0.253093 
-2.71006 2.50609 -1.40376 -2.83878 3.00832 -1.15802 -2.86164 3.45423 -0.907089 
-2.75331 3.67046 -0.548231 -2.59817 3.66701 -0.0924507 -2.47606 3.58244 0.379749 
-2.40859 3.40966 0.839473 -2.37306 3.07218 1.2359 -2.33149 2.63739 1.53391 
-0.356646 0.815571 -1.36881 2.46656 0.28608 -1.28344 5.66876 0.888089 -1.32441 
8.9626 2.19648 -1.18596 11.9079 3.68747 -0.851786 14.0957 5.28345 -0.635013 
15.6339 6.86815 -0.571822 16.8646 8.26171 -0.435878 17.8446 9.38924 -0.171412 
-4.33571 3.80742 -1.88592 -5.76504 5.30797 -1.97908 -7.17958 6.29124 -1.8526 
-8.70622 7.01197 -1.59631 -10.1502 7.59314 -1.32477 -11.4796 7.92025 -1.05366 
-12.795 8.15885 -0.77653 -14.0049 8.39444 -0.489381 -14.9887 8.39695 -0.195386 
-0.672698 1.25249 1.47449 1.46222 0.589515 1.22509 4.14658 0.656226 1.09909 
7.12495 1.42727 1.02897 10.1134 2.65748 1.01903 12.8933 4.31336 1.1357 
15.1519 6.20663 1.19253 16.718 7.91785 0.998144 17.7583 9.22817 0.616442 
-3.67408 3.49327 1.89615 -5.0823 4.75446 2.0017 -6.52724 5.97819 2.18216 
-7.93888 7.14439 2.38817 -9.2983 7.97711 2.34323 -10.6961 8.32712 1.97039 
-12.1418 8.44662 1.49752 -13.5249 8.50666 1.04054 -14.7407 8.40378 0.563507 
-1.15012 -7.08749 -1.49175 -1.19814 -7.50309 -1.26426 -1.25218 -7.8702 -0.907255 
-1.31558 -8.17064 -0.379535 -1.37532 -8.4503 0.238514 -1.37771 -8.59595 0.857408 
-1.23765 -8.46223 1.40216 -0.970209 -8.13732 1.82306 -0.698146 -7.77535 2.14642 
0.516063 -6.93828 -1.66088 2.38984 -7.07912 -1.65575 4.42325 -7.14554 -1.72186 
6.40306 -7.12605 -1.81624 8.37587 -6.78911 -1.8315 10.7119 -5.85379 -1.70128 
13.3202 -4.46879 -1.39601 15.4608 -3.11204 -0.965428 16.7163 -2.03589 -0.541283 
-2.6356 -6.62866 -1.54553 -4.24064 -6.49955 -1.34154 -5.91634 -6.38553 -1.20602 
-7.60798 -6.29789 -1.19726 -9.26679 -6.16023 -1.19113 -10.8495 -5.91793 -1.10103 
-12.2373 -5.58655 -0.944074 -13.4139 -5.19341 -0.733515 -14.4785 -4.70828 -0.508122 
1.0253 -7.62871 2.1153 2.78039 -7.67196 1.79246 4.83996 -7.46547 1.48143 
7.07526 -7.11091 1.19417 9.24725 -6.60911 0.920645 11.3714 -5.75823 0.69576 
13.4618 -4.56847 0.505845 15.2314 -3.3088 0.276994 16.4921 -2.16705 0.0245893 
-2.12942 -7.37958 2.53044 -3.90477 -7.3899 2.60005 -5.76298 -7.41525 2.55434 
-7.64923 -7.18688 2.34175 -9.57385 -6.69045 1.99373 -11.413 -6.27603 1.59046 
-12.8881 -5.9489 1.1494 -13.9268 -5.43131 0.663382 -14.7184 -4.74379 0.164282 
19.2196 10.4848 -0.0149274 19.9241 10.1147 -0.183559 20.6431 8.8964 -0.20703 
21.0767 7.32714 -0.040256 20.9558 5.87371 0.0881066 20.5302 4.42485 0.0573941 
19.97 2.85882 0.00647801 19.14 1.34205 -0.0274925 18.1939 -0.00333747 -0.102373 
-16.5871 7.33174 -0.0900685 -17.2621 6.36625 -0.277478 -17.6612 5.19619 -0.463415 
-17.8843 3.80202 -0.672746 -18.0659 2.35 -0.896898 -18.0519 0.966908 -1.02634 
-17.6941 -0.475737 -0.985614 -17.0851 -1.91722 -0.802541 -16.3063 -3.12581 -0.553539 
-8.97829 0.227384 -3.41502 -8.43665 0.752907 -3.28538 -7.30143 -0.250593 -3.1723 
-7.75394 1.24769 -3.14765 -6.62534 0.197678 -3.00239 -5.35102 -0.829473 -2.87281 
-6.97691 1.68466 -3.02847 -5.87659 0.545368 -2.91708 -4.47819 -0.561774 -2.76058 
-2.91195 -1.6102 -2.67472 -6.13078 2.05749 -2.80758 -4.98359 0.748429 -2.82593 
-3.39062 -0.474364 -2.7028 -1.56887 -1.52513 -2.58037 0.206101 -2.36491 -2.56274 
-5.14312 2.22758 -2.54253 -3.80572 0.796192 -2.55792 -1.91269 -0.531376 -2.53959 
0.13042 -1.49358 -2.46147 1.98192 -2.15808 -2.47308 3.51431 -2.60967 -2.56951 
-3.90565 2.01785 -2.31914 -2.30663 0.632509 -2.23818 -0.117928 -0.602893 -2.25463 
2.07694 -1.36067 -2.3089 3.86146 -1.7476 -2.4116 5.26109 -2.01833 -2.58401 
6.35694 -2.24531 -2.73835 -2.48053 1.50099 -2.04005 -0.650207 0.326777 -1.9777 
1.66757 -0.577541 -2.01721 3.88412 -1.00157 -2.17426 5.56232 -1.08207 -2.38277 
6.82316 -1.16435 -2.59642 7.84762 -1.33908 -2.76998 8.6484 -1.55574 -2.86301 
-11.3568 1.4389 -3.53034 -12.3244 2.29339 -3.52792 -10.9736 2.12592 -3.50861 
-13.3059 3.25969 -3.45106 -11.9272 3.09141 -3.51276 -10.4157 2.78966 -3.45925 
-14.2334 4.4009 -3.23043 -12.8422 4.14911 -3.3607 -11.3742 3.86269 -3.40686 
-9.61632 3.38211 -3.25292 -14.9117 5.59106 -2.85856 -13.575 5.30663 -2.99958 
-12.1697 4.98729 -3.11203 -10.507 4.5063 -3.08508 -8.56174 3.87607 -2.92005 
-15.3032 6.61907 -2.31894 -14.0309 6.40824 -2.49472 -12.6393 6.09268 -2.63144 
-11.1475 5.64931 -2.73176 -9.27919 4.96819 -2.75867 -7.41219 4.26416 -2.71719 
-15.4562 7.43125 -1.62674 -14.271 7.29534 -1.87671 -12.8632 7.0139 -2.06606 
-11.4402 6.67468 -2.24287 -9.81632 6.06359 -2.43413 -7.95288 5.28983 -2.59068 
-6.33006 4.45153 -2.61124 -15.3397 8.03697 -0.89001 -14.269 7.95426 -1.18066 
-12.933 7.68378 -1.43381 -11.526 7.41955 -1.66672 -10.0869 6.97348 -1.91822 
-8.43236 6.26276 -2.185 -6.77432 5.43922 -2.36941 -5.31824 4.29768 -2.33273 
-13.8166 8.61695 0.270304 -12.414 8.63594 0.729927 -12.6533 8.51639 -0.0518123 
-10.9367 8.60786 1.20185 -11.1623 8.58943 0.36736 -11.3804 8.32189 -0.385371 
-9.51031 8.45373 1.67031 -9.70316 8.62044 0.78732 -9.90954 8.4564 -0.0335257 
-10.0798 8.06612 -0.713185 -8.12156 7.84245 1.95505 -8.25924 8.301 1.1883 
-8.39719 8.3633 0.324681 -8.54141 8.03071 -0.395386 -8.67151 7.54069 -1.00252 
-6.69072 6.76183 1.94624 -6.77385 7.44372 1.44117 -6.83093 7.80195 0.690005 
-6.91185 7.70377 -0.0701559 -7.05591 7.31211 -0.700826 -7.19091 6.84391 -1.27611 
-5.22624 5.48405 1.80435 -5.30345 6.20044 1.47763 -5.34564 6.70945 0.925657 
[...]
POINT_DATA 1002
FIELD FieldData 4
_paraPhi 1 1002 double
6.2831853072 3.1415926536 6.2831853072 3.1415926536 4.7123889804 4.7123889804 1.5707963268 1.5707963268 3.6951670125 
5.7296109483 2.5880182947 0.5535743589 6.2831853072 6.2831853072 6.2831853072 6.2831853072 3.1415926536 3.1415926536 
3.1415926536 3.1415926536 3.1415926536 6.1053039672 5.898798347 5.6768734901 5.4599499503 5.2659633393 5.1032165617 
4.9713148346 4.8656852733 4.7809517865 0.17788134 0.38438696014 0.60631181711 0.82323535693 1.0172219679 1.1799687454 
1.3118704726 1.4175000338 1.5022335207 6.1892828907 6.1070320098 6.035312792 5.9728339911 5.9183214791 5.8706119594 
5.8286879411 5.7916808611 5.7588591896 0.093902416448 0.17615329733 0.2478725152 0.31035131605 0.36486382811 0.41257334776 
0.45449736604 0.4915044461 0.52432611754 3.3194739936 3.5259796137 3.7479044707 3.9648280105 4.1588146215 4.321561399 
4.4534631262 4.5590926874 4.6438261743 2.9637113136 2.7572056934 2.5352808365 2.3183572967 2.1243706857 1.9616239082 
1.829722181 1.7240926197 1.6393591329 3.23549507 3.3177459509 3.3894651688 3.4519439696 3.5064564817 3.5541660013 
3.5960900196 3.6330970997 3.6659187711 3.0476902371 2.9654393563 2.8937201384 2.8312413375 2.7767288255 2.7290193058 
2.6870952876 2.6500882075 2.617266536 6.2831853072 6.2831853072 6.2831853072 6.2831853072 3.1415926536 3.1415926536 
3.1415926536 3.1415926536 3.1415926536 6.1053039672 5.898798347 5.6768734901 5.4599499503 5.2659633393 5.1032165617 
4.9713148346 4.8656852733 4.7809517865 0.17788134 0.38438696014 0.60631181711 0.82323535693 1.0172219679 1.1799687454 
1.3118704726 1.4175000338 1.5022335207 6.1892828907 6.1070320098 6.035312792 5.9728339911 5.9183214791 5.8706119594 
5.8286879411 5.7916808611 5.7588591896 0.093902416448 0.17615329733 0.2478725152 0.31035131605 0.36486382811 0.41257334776 
0.45449736604 0.4915044461 0.52432611754 3.3194739936 3.5259796137 3.7479044707 3.9648280105 4.1588146215 4.321561399 
4.4534631262 4.5590926874 4.6438261743 2.9637113136 2.7572056934 2.5352808365 2.3183572967 2.1243706857 1.9616239082 
1.829722181 1.7240926197 1.6393591329 3.23549507 3.3177459509 3.3894651688 3.4519439696 3.5064564817 3.5541660013 
3.5960900196 3.6330970997 3.6659187711 3.0476902371 2.9654393563 2.8937201384 2.8312413375 2.7767288255 2.7290193058 
2.6870952876 2.6500882075 2.617266536 4.7123889804 4.7123889804 4.7123889804 4.7123889804 4.7123889804 4.7123889804 
4.7123889804 4.7123889804 4.7123889804 4.6087898617 4.4991390697 4.3857031936 4.2712800401 4.1588146215 4.0509635631 
3.94975894 3.8564636551 3.7716124825 4.8159880991 4.9256388911 5.0390747672 5.1534979207 5.2659633393 5.3738143976 
5.4750190208 5.5683143056 5.6531654782 4.6087898617 4.4991390697 4.3857031936 4.2712800401 4.1588146215 4.0509635631 
3.94975894 3.8564636551 3.7716124825 4.8159880991 4.9256388911 5.0390747672 5.1534979207 5.2659633393 5.3738143976 
5.4750190208 5.5683143056 5.6531654782 1.5707963268 1.5707963268 1.5707963268 1.5707963268 1.5707963268 1.5707963268 
1.5707963268 1.5707963268 1.5707963268 1.6743954455 1.7840462375 1.8974821136 2.0119052671 2.1243706857 2.232221744 
2.3334263672 2.426721652 2.5115728246 1.4671972081 1.3575464161 1.24411054 1.1296873865 1.0172219679 0.90937090954 
0.80816628637 0.71487100155 0.63001982895 1.6743954455 1.7840462375 1.8974821136 2.0119052671 2.1243706857 2.232221744 
2.3334263672 2.426721652 2.5115728246 1.4671972081 1.3575464161 1.24411054 1.1296873865 1.0172219679 0.90937090954 
0.80816628637 0.71487100155 0.63001982895 3.6007720849 3.4966939854 3.3839471039 3.2645756454 3.1415926536 3.0186096618 
2.8992382033 2.7864913217 2.6824132222 5.8240058758 5.9280839753 6.0408308569 6.1602023154 6.2831853072 0.12298299178 
0.2423544503 0.35510133185 0.45917943135 6.0560271438 5.7885595667 5.9702140275 5.5125918794 5.6029703303 5.7885595667 
5.2659633393 5.2659633393 5.2659633393 5.2659633393 5.0674903122 5.0120975802 4.9155579264 4.7123889804 4.1588146215 
4.9155579264 4.8353719722 4.7123889804 4.5092200343 4.1588146215 3.6362183941 4.8004512023 4.7123889804 4.5894059886 
4.4126803806 4.1588146215 3.8218076305 3.4545639333 4.7123889804 4.6243267584 4.5092200343 4.3572876485 4.1588146215 
3.9121860814 3.6362183941 3.368750817 6.0174235957 5.9434319871 5.8263323547 5.8809213739 5.7674481418 5.6279784266 
5.8278025282 5.718968232 5.5891129425 5.4372443565 5.7823484065 5.678536687 5.5575666702 5.4192596322 5.2659633393 
5.743164462 5.6444075337 5.5314983644 5.4046708639 5.2659633393 5.1195510325 5.7091357773 5.6152775188 5.5096229709 
5.3926039573 5.2659633393 5.1329233157 4.9978930058 5.6793730533 5.5901633916 5.4910209005 5.3824597928 5.2659633393 
5.1440684722 5.0201624502 4.8979782167 5.5683143056 5.4750190208 5.4750190208 5.3738143976 5.3738143976 5.3738143976 
5.2659633393 5.2659633393 5.2659633393 5.2659633393 5.1534979207 5.1534979207 5.1534979207 5.1534979207 5.1534979207 
5.0390747672 5.0390747672 5.0390747672 5.0390747672 5.0390747672 5.0390747672 4.9256388911 4.9256388911 4.9256388911 
4.9256388911 4.9256388911 4.9256388911 4.9256388911 4.8159880991 4.8159880991 4.8159880991 4.8159880991 4.8159880991 
4.8159880991 4.8159880991 4.8159880991 4.6087898617 4.6087898617 4.4991390697 4.6087898617 4.4991390697 4.3857031936 
4.6087898617 4.4991390697 4.3857031936 4.2712800401 4.6087898617 4.4991390697 4.3857031936 4.2712800401 4.1588146215 
4.6087898617 4.4991390697 4.3857031936 4.2712800401 4.1588146215 4.0509635631 4.6087898617 4.4991390697 4.3857031936 
4.2712800401 4.1588146215 4.0509635631 3.94975894 4.6087898617 4.4991390697 4.3857031936 4.2712800401 4.1588146215 
4.0509635631 3.94975894 3.8564636551 4.526799744 4.4046155105 4.426884955 4.2807094886 4.2918546451 4.3052269283 
4.1588146215 4.1588146215 4.1588146215 4.1588146215 4.042318168 4.0321740035 4.0201070968 4.0055183285 3.9875336042 
3.9337570603 3.9151549899 3.8932795963 3.8672112905 3.8356650183 3.7967995342 3.8346145692 3.809500442 3.7803704271 
3.7462412737 3.7058097288 3.657329819 3.5984456061 3.7454049075 3.7156421835 3.6816134988 3.6424295543 3.5969754326 
3.5438565869 3.4813459737 3.4073543651 3.5642842451 3.4524645613 3.5233842518 3.3320300872 3.403123212 3.4773852225 
3.20576226 3.2746326772 3.348015857 3.4255060145 3.0774230472 3.1415926536 3.2112816139 3.2864685043 3.3668817272 
2.95115522 3.00855263 3.0719036933 3.1415926536 3.2178377658 3.3005964304 2.8307207459 2.8800620952 2.9351694502 
2.9967168029 3.0653475414 3.1415926536 3.225752376 2.718901062 2.7598010554 2.8058000847 2.8576792927 2.91630358 
2.9825888767 3.0574329311 3.1415926536 3.5642842451 3.5233842518 3.4524645613 3.4773852225 3.403123212 3.3320300872 
3.4255060145 3.348015857 3.2746326772 3.20576226 3.3668817272 3.2864685043 3.2112816139 3.1415926536 3.0774230472 
3.3005964304 3.2178377658 3.1415926536 3.0719036933 3.00855263 2.95115522 3.225752376 3.1415926536 3.0653475414 
2.9967168029 2.9351694502 2.8800620952 2.8307207459 3.1415926536 3.0574329311 2.9825888767 2.91630358 2.8576792927 
2.8058000847 2.7598010554 2.718901062 4.526799744 4.426884955 4.4046155105 4.3052269283 4.2918546451 4.2807094886 
4.1588146215 4.1588146215 4.1588146215 4.1588146215 3.9875336042 4.0055183285 4.0201070968 4.0321740035 4.042318168 
3.7967995342 3.8356650183 3.8672112905 3.8932795963 3.9151549899 3.9337570603 3.5984456061 3.657329819 3.7058097288 
3.7462412737 3.7803704271 3.809500442 3.8346145692 3.4073543651 3.4813459737 3.5438565869 3.5969754326 3.6424295543 
3.6816134988 3.7156421835 3.7454049075 4.7123889804 4.8004512023 4.6243267584 4.9155579264 4.7123889804 4.5092200343 
5.0674903122 4.8353719722 4.5894059886 4.3572876485 5.2659633393 5.0120975802 4.7123889804 4.4126803806 4.1588146215 
5.5125918794 5.2659633393 4.9155579264 4.5092200343 4.1588146215 3.9121860814 5.7885595667 5.6029703303 5.2659633393 
4.7123889804 4.1588146215 3.8218076305 3.6362183941 6.0560271438 5.9702140275 5.7885595667 5.2659633393 4.1588146215 
3.6362183941 3.4545639333 3.368750817 0.22715816343 0.49462574053 0.3129712797 0.77059342779 0.68021497688 0.49462574053 
1.0172219679 1.0172219679 1.0172219679 1.0172219679 1.2156949949 1.271087727 1.3676273807 1.5707963268 2.1243706857 
1.3676273807 1.447813335 1.5707963268 1.7739652728 2.1243706857 2.6469669131 1.4827341049 1.5707963268 1.6937793186 
1.8705049266 2.1243706857 2.4613776767 2.8286213739 1.5707963268 1.6588585487 1.7739652728 1.9258976586 2.1243706857 
2.3709992258 2.6469669131 2.9144344902 1.7563855631 1.8785697967 1.8563003522 2.0024758186 1.9913306621 1.9779583789 
2.1243706857 2.1243706857 2.1243706857 2.1243706857 2.2408671392 2.2510113037 2.2630782103 2.2776669786 2.295651703 
2.3494282469 2.3680303173 2.3899057108 2.4159740166 2.4475202889 2.486385773 2.448570738 2.4736848652 2.5028148801 
2.5369440334 2.5773755784 2.6258554882 2.6847397011 2.5377803997 2.5675431237 2.6015718084 2.6407557529 2.6862098746 
2.7393287203 2.8018393335 2.8758309421 1.6743954455 1.6743954455 1.7840462375 1.6743954455 1.7840462375 1.8974821136 
1.6743954455 1.7840462375 1.8974821136 2.0119052671 1.6743954455 1.7840462375 1.8974821136 2.0119052671 2.1243706857 
1.6743954455 1.7840462375 1.8974821136 2.0119052671 2.1243706857 2.232221744 1.6743954455 1.7840462375 1.8974821136 
2.0119052671 2.1243706857 2.232221744 2.3334263672 1.6743954455 1.7840462375 1.8974821136 2.0119052671 2.1243706857 
2.232221744 2.3334263672 2.426721652 1.4671972081 1.3575464161 1.4671972081 1.24411054 1.3575464161 1.4671972081 
1.1296873865 1.24411054 1.3575464161 1.4671972081 1.0172219679 1.1296873865 1.24411054 1.3575464161 1.4671972081 
0.90937090954 1.0172219679 1.1296873865 1.24411054 1.3575464161 1.4671972081 0.80816628637 0.90937090954 1.0172219679 
1.1296873865 1.24411054 1.3575464161 1.4671972081 0.71487100155 0.80816628637 0.90937090954 1.0172219679 1.1296873865 
1.24411054 1.3575464161 1.4671972081 0.60381225391 0.57404952988 0.69302191562 0.54002084522 0.66790778838 0.79216440667 
0.50083690068 0.63877777351 0.77356233629 0.90072551443 0.45538277901 0.60464862014 0.75168694275 0.89058134991 1.0172219679 
0.40226393329 0.56421707518 0.72561863695 0.87851444325 1.0172219679 1.139116835 0.33975332011 0.51573716537 0.69407236469 
0.86392567495 1.0172219679 1.1502619915 1.2630228569 0.26576171152 0.45685295248 0.6552068806 0.84594095064 1.0172219679 
1.1636342747 1.2852923014 1.3852070904 0.22715816343 0.3129712797 0.49462574053 0.49462574053 0.68021497688 0.77059342779 
1.0172219679 1.0172219679 1.0172219679 1.0172219679 2.1243706857 1.5707963268 1.3676273807 1.271087727 1.2156949949 
2.6469669131 2.1243706857 1.7739652728 1.5707963268 1.447813335 1.3676273807 2.8286213739 2.4613776767 2.1243706857 
1.8705049266 1.6937793186 1.5707963268 1.4827341049 2.9144344902 2.6469669131 2.3709992258 2.1243706857 1.9258976586 
1.7739652728 1.6588585487 1.5707963268 1.7563855631 1.8563003522 1.8785697967 1.9779583789 1.9913306621 2.0024758186 
2.1243706857 2.1243706857 2.1243706857 2.1243706857 2.295651703 2.2776669786 2.2630782103 2.2510113037 2.2408671392 
2.486385773 2.4475202889 2.4159740166 2.3899057108 2.3680303173 2.3494282469 2.6847397011 2.6258554882 2.5773755784 
2.5369440334 2.5028148801 2.4736848652 2.448570738 2.8758309421 2.8018393335 2.7393287203 2.6862098746 2.6407557529 
2.6015718084 2.5675431237 2.5377803997 5.8604937156 5.901393709 5.9723133995 5.9473927383 6.0216547488 6.0927478736 
5.9992719463 6.0767621038 6.1501452836 6.2190157008 6.0578962336 6.1383094565 6.2134963469 0 0.064169606361 
6.1241815303 6.206940195 6.2831853072 0.069688960264 0.13304002361 0.19043743361 6.1990255847 0 0.07624511221 
0.14487585072 0.20642320337 0.26153055843 0.3108719077 0 0.084159722458 0.15900377685 0.22528907359 0.28391336087 
0.3357925689 0.38179159818 0.42269159155 5.8604937156 5.9723133995 5.901393709 6.0927478736 6.0216547488 5.9473927383 
6.2190157008 6.1501452836 6.0767621038 5.9992719463 0.064169606361 0 6.2134963469 6.1383094565 6.0578962336 
0.19043743361 0.13304002361 0.069688960264 6.2831853072 6.206940195 6.1241815303 0.3108719077 0.26153055843 0.20642320337 
0.14487585072 0.07624511221 6.2831853072 6.1990255847 0.42269159155 0.38179159818 0.3357925689 0.28391336087 0.22528907359 
0.15900377685 0.084159722458 0 5.6793730533 5.7091357773 5.5901633916 5.743164462 5.6152775188 5.4910209005 
5.7823484065 5.6444075337 5.5096229709 5.3824597928 5.8278025282 5.678536687 5.5314983644 5.3926039573 5.2659633393 
5.8809213739 5.718968232 5.5575666702 5.4046708639 5.2659633393 5.1440684722 5.9434319871 5.7674481418 5.5891129425 
5.4192596322 5.2659633393 5.1329233157 5.0201624502 6.0174235957 5.8263323547 5.6279784266 5.4372443565 5.2659633393 
5.1195510325 4.9978930058 4.8979782167 1.3852070904 1.2852923014 1.2630228569 1.1636342747 1.1502619915 1.139116835 
1.0172219679 1.0172219679 1.0172219679 1.0172219679 0.84594095064 0.86392567495 0.87851444325 0.89058134991 0.90072551443 
0.6552068806 0.69407236469 0.72561863695 0.75168694275 0.77356233629 0.79216440667 0.45685295248 0.51573716537 0.56421707518 
0.60464862014 0.63877777351 0.66790778838 0.69302191562 0.26576171152 0.33975332011 0.40226393329 0.45538277901 0.50083690068 
0.54002084522 0.57404952988 0.60381225391 
_paraPhiHalf 1 1002 double
0 3.1415926536 0 3.1415926536 1.5707963268 1.5707963268 1.5707963268 1.5707963268 2.5880182947 
0.5535743589 2.5880182947 0.5535743589 0 0 0 0 3.1415926536 3.1415926536 
3.1415926536 3.1415926536 3.1415926536 0.17788134 0.38438696014 0.60631181711 0.82323535693 1.0172219679 1.1799687454 
1.3118704726 1.4175000338 1.5022335207 0.17788134 0.38438696014 0.60631181711 0.82323535693 1.0172219679 1.1799687454 
1.3118704726 1.4175000338 1.5022335207 0.093902416448 0.17615329733 0.2478725152 0.31035131605 0.36486382811 0.41257334776 
0.45449736604 0.4915044461 0.52432611754 0.093902416448 0.17615329733 0.2478725152 0.31035131605 0.36486382811 0.41257334776 
0.45449736604 0.4915044461 0.52432611754 2.9637113136 2.7572056934 2.5352808365 2.3183572967 2.1243706857 1.9616239082 
1.829722181 1.7240926197 1.6393591329 2.9637113136 2.7572056934 2.5352808365 2.3183572967 2.1243706857 1.9616239082 
1.829722181 1.7240926197 1.6393591329 3.0476902371 2.9654393563 2.8937201384 2.8312413375 2.7767288255 2.7290193058 
2.6870952876 2.6500882075 2.617266536 3.0476902371 2.9654393563 2.8937201384 2.8312413375 2.7767288255 2.7290193058 
2.6870952876 2.6500882075 2.617266536 0 0 0 0 3.1415926536 3.1415926536 
3.1415926536 3.1415926536 3.1415926536 0.17788134 0.38438696014 0.60631181711 0.82323535693 1.0172219679 1.1799687454 
1.3118704726 1.4175000338 1.5022335207 0.17788134 0.38438696014 0.60631181711 0.82323535693 1.0172219679 1.1799687454 
1.3118704726 1.4175000338 1.5022335207 0.093902416448 0.17615329733 0.2478725152 0.31035131605 0.36486382811 0.41257334776 
0.45449736604 0.4915044461 0.52432611754 0.093902416448 0.17615329733 0.2478725152 0.31035131605 0.36486382811 0.41257334776 
0.45449736604 0.4915044461 0.52432611754 2.9637113136 2.7572056934 2.5352808365 2.3183572967 2.1243706857 1.9616239082 
1.829722181 1.7240926197 1.6393591329 2.9637113136 2.7572056934 2.5352808365 2.3183572967 2.1243706857 1.9616239082 
1.829722181 1.7240926197 1.6393591329 3.0476902371 2.9654393563 2.8937201384 2.8312413375 2.7767288255 2.7290193058 
2.6870952876 2.6500882075 2.617266536 3.0476902371 2.9654393563 2.8937201384 2.8312413375 2.7767288255 2.7290193058 
2.6870952876 2.6500882075 2.617266536 1.5707963268 1.5707963268 1.5707963268 1.5707963268 1.5707963268 1.5707963268 
1.5707963268 1.5707963268 1.5707963268 1.6743954455 1.7840462375 1.8974821136 2.0119052671 2.1243706857 2.232221744 
2.3334263672 2.426721652 2.5115728246 1.4671972081 1.3575464161 1.24411054 1.1296873865 1.0172219679 0.90937090954 
0.80816628637 0.71487100155 0.63001982895 1.6743954455 1.7840462375 1.8974821136 2.0119052671 2.1243706857 2.232221744 
2.3334263672 2.426721652 2.5115728246 1.4671972081 1.3575464161 1.24411054 1.1296873865 1.0172219679 0.90937090954 
0.80816628637 0.71487100155 0.63001982895 1.5707963268 1.5707963268 1.5707963268 1.5707963268 1.5707963268 1.5707963268 
1.5707963268 1.5707963268 1.5707963268 1.6743954455 1.7840462375 1.8974821136 2.0119052671 2.1243706857 2.232221744 
2.3334263672 2.426721652 2.5115728246 1.4671972081 1.3575464161 1.24411054 1.1296873865 1.0172219679 0.90937090954 
0.80816628637 0.71487100155 0.63001982895 1.6743954455 1.7840462375 1.8974821136 2.0119052671 2.1243706857 2.232221744 
2.3334263672 2.426721652 2.5115728246 1.4671972081 1.3575464161 1.24411054 1.1296873865 1.0172219679 0.90937090954 
0.80816628637 0.71487100155 0.63001982895 2.6824132222 2.7864913217 2.8992382033 3.0186096618 3.1415926536 3.0186096618 
2.8992382033 2.7864913217 2.6824132222 0.45917943135 0.35510133185 0.2423544503 0.12298299178 0 0.12298299178 
0.2423544503 0.35510133185 0.45917943135 0.22715816343 0.49462574053 0.3129712797 0.77059342779 0.68021497688 0.49462574053 
1.0172219679 1.0172219679 1.0172219679 1.0172219679 1.2156949949 1.271087727 1.3676273807 1.5707963268 2.1243706857 
1.3676273807 1.447813335 1.5707963268 1.7739652728 2.1243706857 2.6469669131 1.4827341049 1.5707963268 1.6937793186 
1.8705049266 2.1243706857 2.4613776767 2.8286213739 1.5707963268 1.6588585487 1.7739652728 1.9258976586 2.1243706857 
2.3709992258 2.6469669131 2.9144344902 0.26576171152 0.33975332011 0.45685295248 0.40226393329 0.51573716537 0.6552068806 
0.45538277901 0.56421707518 0.69407236469 0.84594095064 0.50083690068 0.60464862014 0.72561863695 0.86392567495 1.0172219679 
0.54002084522 0.63877777351 0.75168694275 0.87851444325 1.0172219679 1.1636342747 0.57404952988 0.66790778838 0.77356233629 
0.89058134991 1.0172219679 1.1502619915 1.2852923014 0.60381225391 0.69302191562 0.79216440667 0.90072551443 1.0172219679 
1.139116835 1.2630228569 1.3852070904 0.71487100155 0.80816628637 0.80816628637 0.90937090954 0.90937090954 0.90937090954 
1.0172219679 1.0172219679 1.0172219679 1.0172219679 1.1296873865 1.1296873865 1.1296873865 1.1296873865 1.1296873865 
1.24411054 1.24411054 1.24411054 1.24411054 1.24411054 1.24411054 1.3575464161 1.3575464161 1.3575464161 
1.3575464161 1.3575464161 1.3575464161 1.3575464161 1.4671972081 1.4671972081 1.4671972081 1.4671972081 1.4671972081 
1.4671972081 1.4671972081 1.4671972081 1.6743954455 1.6743954455 1.7840462375 1.6743954455 1.7840462375 1.8974821136 
1.6743954455 1.7840462375 1.8974821136 2.0119052671 1.6743954455 1.7840462375 1.8974821136 2.0119052671 2.1243706857 
1.6743954455 1.7840462375 1.8974821136 2.0119052671 2.1243706857 2.232221744 1.6743954455 1.7840462375 1.8974821136 
2.0119052671 2.1243706857 2.232221744 2.3334263672 1.6743954455 1.7840462375 1.8974821136 2.0119052671 2.1243706857 
2.232221744 2.3334263672 2.426721652 1.7563855631 1.8785697967 1.8563003522 2.0024758186 1.9913306621 1.9779583789 
2.1243706857 2.1243706857 2.1243706857 2.1243706857 2.2408671392 2.2510113037 2.2630782103 2.2776669786 2.295651703 
2.3494282469 2.3680303173 2.3899057108 2.4159740166 2.4475202889 2.486385773 2.448570738 2.4736848652 2.5028148801 
2.5369440334 2.5773755784 2.6258554882 2.6847397011 2.5377803997 2.5675431237 2.6015718084 2.6407557529 2.6862098746 
2.7393287203 2.8018393335 2.8758309421 2.718901062 2.8307207459 2.7598010554 2.95115522 2.8800620952 2.8058000847 
3.0774230472 3.00855263 2.9351694502 2.8576792927 3.0774230472 3.1415926536 3.0719036933 2.9967168029 2.91630358 
2.95115522 3.00855263 3.0719036933 3.1415926536 3.0653475414 2.9825888767 2.8307207459 2.8800620952 2.9351694502 
2.9967168029 3.0653475414 3.1415926536 3.0574329311 2.718901062 2.7598010554 2.8058000847 2.8576792927 2.91630358 
2.9825888767 3.0574329311 3.1415926536 2.718901062 2.7598010554 2.8307207459 2.8058000847 2.8800620952 2.95115522 
2.8576792927 2.9351694502 3.00855263 3.0774230472 2.91630358 2.9967168029 3.0719036933 3.1415926536 3.0774230472 
2.9825888767 3.0653475414 3.1415926536 3.0719036933 3.00855263 2.95115522 3.0574329311 3.1415926536 3.0653475414 