# vtk DataFile Version 5.1
vtk output
ASCII
DATASET POLYDATA
POINTS 1002 float
-10.7252 0.460556 -2.21789 -25.0738 -13.9395 -5.10329 -9.5299 -2.73879 3.96604 
-24.1427 -15.0528 -0.424791 -13.6088 -6.96058 -3.3957 -14.0784 -8.15724 -0.0421276 
-21.4008 -2.94812 -0.836344 -21.5326 -3.74188 3.24765 -21.6833 -27.2486 -5.09289 
-1.27984 -1.82962 0.0318489 -29.1466 -19.7223 -3.04082 -10.1494 5.44268 2.79472 
-11.6992 -0.249689 -2.36058 -12.9087 -1.03784 -2.51954 -14.3599 -1.94584 -2.63036 
-16.0381 -3.11375 -2.71086 -17.9944 -4.58197 -2.97734 -20.1225 -6.25115 -3.52991 
-22.0253 -8.11449 -4.11896 -23.4282 -10.1447 -4.54123 -24.395 -12.1402 -4.84707 
-10.5073 -0.0277785 -2.50686 -10.3239 -0.618219 -2.81674 -10.1794 -1.28125 -3.11856 
-10.114 -2.00983 -3.36784 -10.2228 -2.91338 -3.52799 -10.5424 -4.00387 -3.60016 
-11.0085 -5.03038 -3.61609 -11.6311 -5.80783 -3.59168 -12.5057 -6.40904 -3.51559 
-11.5629 0.466928 -2.02552 -12.5438 0.426672 -1.84734 -13.6388 0.309058 -1.64114 
-14.7674 0.044068 -1.37519 -15.921 -0.37137 -1.13051 -17.1282 -0.857805 -0.974014 
-18.3156 -1.38486 -0.873046 -19.4173 -1.94113 -0.81833 -20.4507 -2.47063 -0.817863 
-9.65082 0.83276 -2.26439 -8.41415 1.10828 -2.26384 -6.99736 1.23992 -2.1708 
-5.53929 1.2548 -2.04399 -4.21448 1.12315 -1.92189 -3.11092 0.738228 -1.73577 
-2.27426 0.137519 -1.4342 -1.70438 -0.519096 -1.01222 -1.37226 -1.17098 -0.495043 
-10.3376 1.16946 -1.95628 -9.96345 1.92445 -1.6509 -9.62155 2.66506 -1.26807 
-9.36771 3.30857 -0.776743 -9.20722 3.87322 -0.188531 -9.13962 4.41357 0.408968 
-9.23895 4.89792 0.95379 -9.51429 5.26781 1.51398 -9.8534 5.46186 2.14934 
-24.5587 -13.8139 -5.14793 -23.9455 -13.4983 -5.17007 -23.2438 -12.9444 -5.15019 
-22.3744 -12.1383 -5.05037 -21.2759 -11.0795 -4.82124 -20.0038 -9.81439 -4.41485 
-18.5559 -8.54935 -3.91653 -16.8971 -7.5904 -3.54351 -15.1743 -7.08827 -3.39846 
-25.123 -12.8952 -4.86267 -25.041 -11.7525 -4.53138 -24.8481 -10.5054 -4.14621 
-24.5733 -9.18313 -3.75748 -24.1875 -7.90653 -3.31382 -23.6548 -6.74794 -2.77306 
-23.0299 -5.63998 -2.23366 -22.4206 -4.57965 -1.75599 -21.8815 -3.67317 -1.29527 
-25.2914 -15.7248 -5.36005 -25.3641 -17.7696 -5.61096 -25.2531 -19.9622 -5.90993 
-24.9005 -22.0707 -6.23677 -24.3119 -23.9377 -6.46523 -23.5641 -25.5091 -6.58842 
-22.7616 -26.696 -6.63519 -22.0951 -27.3901 -6.42565 -21.7426 -27.5504 -5.85025 
-25.6837 -15.0198 -5.19595 -26.2306 -16.124 -5.23409 -26.7394 -17.2527 -5.21328 
-27.256 -18.2675 -5.15569 -27.7239 -19.0187 -5.03777 -28.0662 -19.533 -4.81194 
-28.362 -19.8709 -4.47223 -28.6982 -20.0158 -4.03927 -28.9953 -19.9578 -3.54696 
-10.5667 -3.33767 3.90688 -11.779 -4.02028 3.79269 -13.2741 -4.73736 3.55743 
-15.0914 -5.50005 3.14195 -17.065 -6.48212 2.61176 -19.0291 -7.77137 1.96031 
-20.8807 -9.32075 1.13543 -22.4116 -11.135 0.352466 -23.4739 -13.124 -0.150845 
-9.51675 -3.28331 3.65305 -9.52125 -3.92941 3.31838 -9.60419 -4.60038 2.93172 
-9.8252 -5.24216 2.5033 -10.2197 -5.90105 2.065 -10.795 -6.52808 1.6009 
-11.5082 -7.01384 1.12561 -12.3045 -7.40316 0.695732 -13.1683 -7.78325 0.316571 
-10.1834 -2.62644 4.26185 -11.0396 -2.54933 4.49055 -12.2324 -2.4541 4.53913 
-13.6933 -2.40208 4.47031 -15.258 -2.51681 4.43255 -16.8761 -2.78638 4.39491 
-18.4385 -3.08756 4.2451 -19.7336 -3.34131 3.98001 -20.7214 -3.54608 3.63835 
-8.50966 -2.50581 3.78969 -7.40749 -2.27701 3.57147 -6.31524 -2.01999 3.29521 
-5.28427 -1.80491 2.95765 -4.26795 -1.7091 2.59055 -3.30248 -1.71796 2.21597 
-2.48498 -1.7874 1.80351 -1.83773 -1.85142 1.29869 -1.41032 -1.85674 0.687337 
-8.9298 -2.01448 4.15801 -8.35065 -1.08707 4.29326 -7.90349 0.0827887 4.36752 
-7.70286 1.39165 4.37303 -7.76384 2.62383 4.26295 -8.02048 3.62444 4.07916 
-8.44834 4.40777 3.91028 -9.02107 5.0137 3.68368 -9.62516 5.37538 3.29431 
-23.593 -14.5797 -0.422207 -22.9738 -13.9295 -0.408065 -22.3131 -13.1256 -0.43419 
-21.5061 -12.2183 -0.421064 -20.4169 -11.2926 -0.225448 -19.1466 -10.4163 0.0407215 
-17.8969 -9.59355 0.150858 -16.6604 -8.88996 0.121638 -15.3653 -8.41486 0.0574386 
-24.2778 -14.2328 -0.232354 -24.3114 -13.2371 0.0532248 -24.2476 -12.0649 0.39064 
-24.1072 -10.7864 0.733167 -23.8358 -9.46947 1.13987 -23.3647 -8.14114 1.62698 
-22.7814 -6.85858 2.08615 -22.263 -5.692 2.49256 -21.8677 -4.65855 2.89244 
-24.3014 -16.7432 -0.665873 -24.3448 -18.6559 -0.958633 -24.2477 -20.7187 -1.25679 
-23.9723 -22.6291 -1.53329 -23.5723 -24.1334 -1.96694 -23.1421 -25.3052 -2.61785 
-22.6875 -26.2778 -3.244 -22.2252 -26.9954 -3.79172 -21.8615 -27.3311 -4.42018 
-24.7531 -16.4265 -0.53453 -25.3374 -17.7488 -0.643695 -25.953 -18.9543 -0.759833 
-26.6294 -19.9302 -0.893672 -27.2719 -20.5332 -1.12556 -27.7694 -20.743 -1.48816 
-28.1852 -20.665 -1.88615 -28.6063 -20.4305 -2.26448 -28.9578 -20.1222 -2.6506 
-13.496 -7.29389 -3.27165 -13.4694 -7.56589 -3.02725 -13.4287 -7.79418 -2.73953 
-13.3117 -8.0782 -2.46738 -13.2335 -8.33913 -2.13815 -13.3348 -8.38337 -1.70567 
-13.541 -8.2931 -1.23666 -13.7221 -8.2546 -0.785014 -13.8872 -8.23776 -0.377759 
-15.8024 -7.77934 -3.35707 -17.9513 -9.36296 -3.63905 -19.6639 -11.759 -4.15576 
-20.9192 -14.6761 -4.54175 -21.78 -17.7379 -4.66107 -22.1364 -20.5108 -4.76923 
-22.0666 -22.7249 -5.0101 -21.8541 -24.5334 -5.23366 -21.692 -26.0841 -5.27017 
-11.4476 -6.77609 -3.55526 -9.51568 -6.67591 -3.66938 -7.9869 -6.36656 -3.52125 
-6.6834 -5.8236 -3.08738 -5.41537 -5.19533 -2.55035 -4.26477 -4.54041 -2.07836 
-3.23667 -3.85007 -1.63905 -2.27217 -3.14752 -1.12342 -1.55765 -2.46801 -0.539507 
-15.8523 -8.80419 -0.372752 -17.6154 -9.9212 -0.836566 -19.1389 -11.6498 -1.41939 
-20.4475 -14.0236 -2.02516 -21.4736 -16.8531 -2.53232 -21.9065 -19.6658 -2.92281 
-21.8593 -22.1059 -3.32051 -21.7604 -24.1912 -3.83971 -21.7106 -25.9457 -4.46402 
-12.2082 -7.85161 0.0184908 -10.3188 -7.67856 0.0574603 -8.479 -7.51423 0.154642 
-6.73282 -7.2134 0.281408 -5.25918 -6.65211 0.296447 -4.12296 -5.88203 0.211294 
-3.11845 -5.01494 0.182144 -2.18541 -4.02395 0.207523 -1.5313 -2.91755 0.166172 
-21.6462 -2.83554 -0.531887 -21.8375 -2.72977 -0.161021 -22.0094 -2.58694 0.274559 
-22.1775 -2.41835 0.7935 -22.236 -2.34297 1.37824 -22.1509 -2.42608 1.95852 
-22.0501 -2.62599 2.48217 -21.9574 -2.92923 2.89556 -21.785 -3.32375 3.14285 
-22.6289 -3.89125 -1.15309 -23.9376 -5.08206 -1.51166 -25.2731 -6.56389 -1.87924 
-26.5398 -8.15742 -2.19522 -27.612 -9.76024 -2.4489 -28.4263 -11.6944 -2.7221 
-28.982 -14.1462 -3.0081 -29.2747 -16.598 -3.16555 -29.313 -18.4602 -3.14558 
-20.3457 -1.95459 -0.371845 -19.2259 -0.818382 0.0917391 -18.0925 0.340804 0.550731 
-16.9291 1.34112 1.01548 -15.7023 2.28794 1.43836 -14.4978 3.28274 1.75476 
-13.3749 4.10773 2.00726 -12.2801 4.67822 2.27371 -11.1948 5.12379 2.55159 
-22.583 -4.6024 2.5784 -23.8015 -5.80245 1.80668 -25.1105 -7.37662 1.04062 
-26.4775 -9.18251 0.395624 -27.8077 -11.1058 -0.0798642 -28.7413 -13.1658 -0.518743 
-29.1388 -15.2772 -1.13225 -29.2714 -17.1618 -1.883 -29.2882 -18.6256 -2.54679 
-20.6785 -2.71134 3.75771 -19.6721 -1.53686 4.13742 -18.4411 -0.212703 4.37167 
-17.0011 1.11576 4.47928 -15.5326 2.31251 4.47676 -14.2115 3.31665 4.36704 
-13.0509 4.08859 4.12897 -12.0105 4.66665 3.75287 -11.0557 5.11795 3.28458 
-21.9141 -28.2691 -5.23599 -22.6761 -28.7677 -5.2091 -23.9861 -28.6604 -4.99994 
-25.3291 -28.0033 -4.68061 -26.3007 -26.9621 -4.37817 -27.0544 -25.7015 -4.13557 
-27.7299 -24.2204 -3.86037 -28.2934 -22.578 -3.53194 -28.7735 -21.0416 -3.25018 
-1.37839 -0.746431 0.276333 -1.74129 0.440322 0.568257 -2.19323 1.68308 0.890339 
-2.77459 2.87689 1.14214 -3.63704 3.87221 1.32781 -4.76001 4.63307 1.59025 
-6.06941 5.22682 1.9593 -7.49308 5.60045 2.31968 -8.89059 5.65343 2.59656 
-11.5811 -0.803189 -2.66356 -11.4957 -1.44459 -2.98732 -12.9067 -1.63382 -2.80197 
-11.4798 -2.12813 -3.28915 -12.9217 -2.29742 -3.08206 -14.4992 -2.5793 -2.8659 
-11.6755 -2.90696 -3.51836 -13.0953 -3.03964 -3.32056 -14.7052 -3.32222 -3.07621 
-16.4229 -3.86857 -2.96149 -12.1293 -3.88383 -3.63099 -13.6216 -3.93003 -3.48609 
-15.1951 -4.23944 -3.24838 -16.9932 -4.8344 -3.19253 -18.7036 -5.57163 -3.3419 
-12.6878 -4.89313 -3.61046 -14.3733 -4.90599 -3.55084 -16.0062 -5.26888 -3.41887 
-17.7977 -5.99746 -3.43653 -19.556 -6.83331 -3.68657 -20.9606 -7.54172 -3.96407 
-13.3149 -5.69557 -3.5132 -15.1364 -5.79213 -3.52244 -16.8789 -6.28106 -3.60028 
-18.6274 -7.18653 -3.77399 -20.3328 -8.21661 -4.07122 -21.6974 -9.05738 -4.3603 
-22.6786 -9.66798 -4.51245 -14.1459 -6.3672 -3.42943 -15.9669 -6.63511 -3.49252 
-17.7185 -7.33663 -3.7635 -19.3423 -8.41539 -4.14322 -20.8689 -9.59848 -4.4982 
-22.142 -10.5994 -4.74942 -23.0778 -11.3218 -4.86478 -23.8 -11.8154 -4.87933 
-9.33654 0.289868 -2.54925 -7.98887 0.461872 -2.51065 -9.05776 -0.370268 -2.83527 
-6.50616 0.455085 -2.3974 -7.63249 -0.3266 -2.76589 -8.81494 -1.13384 -3.10354 
-5.07514 0.335843 -2.26691 -6.17633 -0.496039 -2.64391 -7.34476 -1.26007 -3.02296 
-8.64352 -2.02754 -3.31278 -3.83941 0.0461266 -2.0869 -4.87853 -0.779074 -2.45785 
-6.01717 -1.60849 -2.89616 -7.21257 -2.32559 -3.2388 -8.70819 -3.11314 -3.44988 
-2.86071 -0.507883 -1.82363 -3.80794 -1.24634 -2.17916 -4.94965 -2.07125 -2.65105 
-6.1376 -2.8049 -3.12987 -7.46511 -3.4936 -3.41576 -9.09643 -4.30104 -3.56744 
-2.17108 -1.1865 -1.48759 -3.01871 -1.904 -1.87577 -4.10227 -2.67936 -2.31339 
-5.32617 -3.40421 -2.85844 -6.64861 -4.02948 -3.32562 -8.05395 -4.70966 -3.59207 
-9.68118 -5.37186 -3.67825 -1.74362 -1.83717 -1.05117 -2.53036 -2.55843 -1.54456 
-3.53724 -3.31443 -1.98488 -4.66929 -4.03671 -2.46581 -5.97319 -4.66499 -3.00559 
-7.326 -5.26804 -3.4679 -8.72349 -5.83533 -3.71399 -10.4308 -6.19503 -3.6944 
-2.03674 -3.59749 -0.466507 -2.82048 -4.73729 -0.459933 -2.92042 -4.27915 -1.10797 
-3.71192 -5.80708 -0.430103 -3.70385 -5.42558 -1.07787 -3.95119 -4.94012 -1.63599 
-4.71371 -6.76648 -0.296704 -4.56034 -6.57578 -0.970096 -4.77448 -6.0679 -1.58922 
-5.05643 -5.59578 -2.09075 -6.08829 -7.45753 -0.188276 -5.70556 -7.55698 -0.820251 
-5.75874 -7.23695 -1.52818 -5.99678 -6.71367 -2.12936 -6.26637 -6.28276 -2.62666 
[...]
POINT_DATA 1002
FIELD FieldData 4
_paraPhi 1 1002 double
6.2831853072 3.1415926536 6.2831853072 3.1415926536 4.7123889804 4.7123889804 1.5707963268 1.5707963268 3.6951670125 
5.7296109483 2.5880182947 0.5535743589 6.2831853072 6.2831853072 6.2831853072 6.2831853072 3.1415926536 3.1415926536 
3.1415926536 3.1415926536 3.1415926536 6.1053039672 5.898798347 5.6768734901 5.4599499503 5.2659633393 5.1032165617 
4.9713148346 4.8656852733 4.7809517865 0.17788134 0.38438696014 0.60631181711 0.82323535693 1.0172219679 1.1799687454 
1.3118704726 1.4175000338 1.5022335207 6.1892828907 6.1070320098 6.035312792 5.9728339911 5.9183214791 5.8706119594 
5.8286879411 5.7916808611 5.7588591896 0.093902416448 0.17615329733 0.2478725152 0.31035131605 0.36486382811 0.41257334776 
0.45449736604 0.4915044461 0.52432611754 3.3194739936 3.5259796137 3.7479044707 3.9648280105 4.1588146215 4.321561399 
4.4534631262 4.5590926874 4.6438261743 2.9637113136 2.7572056934 2.5352808365 2.3183572967 2.1243706857 1.9616239082 
1.829722181 1.7240926197 1.6393591329 3.23549507 3.3177459509 3.3894651688 3.4519439696 3.5064564817 3.5541660013 
3.5960900196 3.6330970997 3.6659187711 3.0476902371 2.9654393563 2.8937201384 2.8312413375 2.7767288255 2.7290193058 
2.6870952876 2.6500882075 2.617266536 6.2831853072 6.2831853072 6.2831853072 6.2831853072 3.1415926536 3.1415926536 
3.1415926536 3.1415926536 3.1415926536 6.1053039672 5.898798347 5.6768734901 5.4599499503 5.2659633393 5.1032165617 
4.9713148346 4.8656852733 4.7809517865 0.17788134 0.38438696014 0.60631181711 0.82323535693 1.0172219679 1.1799687454 
1.3118704726 1.4175000338 1.5022335207 6.1892828907 6.1070320098 6.035312792 5.9728339911 5.9183214791 5.8706119594 
5.8286879411 5.7916808611 5.7588591896 0.093902416448 0.17615329733 0.2478725152 0.31035131605 0.36486382811 0.41257334776 
0.45449736604 0.4915044461 0.52432611754 3.3194739936 3.5259796137 3.7479044707 3.9648280105 4.1588146215 4.321561399 
4.4534631262 4.5590926874 4.6438261743 2.9637113136 2.7572056934 2.5352808365 2.3183572967 2.1243706857 1.9616239082 
1.829722181 1.7240926197 1.6393591329 3.23549507 3.3177459509 3.3894651688 3.4519439696 3.5064564817 3.5541660013 
3.5960900196 3.6330970997 3.6659187711 3.0476902371 2.9654393563 2.8937201384 2.8312413375 2.7767288255 2.7290193058 
2.6870952876 2.6500882075 2.617266536 4.7123889804 4.7123889804 4.7123889804 4.7123889804 4.7123889804 4.7123889804 
4.7123889804 4.7123889804 4.7123889804 4.6087898617 4.4991390697 4.3857031936 4.2712800401 4.1588146215 4.0509635631 
3.94975894 3.8564636551 3.7716124825 4.8159880991 4.9256388911 5.0390747672 5.1534979207 5.2659633393 5.3738143976 
5.4750190208 5.5683143056 5.6531654782 4.6087898617 4.4991390697 4.3857031936 4.2712800401 4.1588146215 4.0509635631 
3.94975894 3.8564636551 3.7716124825 4.8159880991 4.9256388911 5.0390747672 5.1534979207 5.2659633393 5.3738143976 
5.4750190208 5.5683143056 5.6531654782 1.5707963268 1.5707963268 1.5707963268 1.5707963268 1.5707963268 1.5707963268 
1.5707963268 1.5707963268 1.5707963268 1.6743954455 1.7840462375 1.8974821136 2.0119052671 2.1243706857 2.232221744 
2.3334263672 2.426721652 2.5115728246 1.4671972081 1.3575464161 1.24411054 1.1296873865 1.0172219679 0.90937090954 
0.80816628637 0.71487100155 0.63001982895 1.6743954455 1.7840462375 1.8974821136 2.0119052671 2.1243706857 2.232221744 
2.3334263672 2.426721652 2.5115728246 1.4671972081 1.3575464161 1.24411054 1.1296873865 1.0172219679 0.90937090954 
0.80816628637 0.71487100155 0.63001982895 3.6007720849 3.4966939854 3.3839471039 3.2645756454 3.1415926536 3.0186096618 
2.8992382033 2.7864913217 2.6824132222 5.8240058758 5.9280839753 6.0408308569 6.1602023154 6.2831853072 0.12298299178 
0.2423544503 0.35510133185 0.45917943135 6.0560271438 5.7885595667 5.9702140275 5.5125918794 5.6029703303 5.7885595667 
5.2659633393 5.2659633393 5.2659633393 5.2659633393 5.0674903122 5.0120975802 4.9155579264 4.7123889804 4.1588146215 
4.9155579264 4.8353719722 4.7123889804 4.5092200343 4.1588146215 3.6362183941 4.8004512023 4.7123889804 4.5894059886 
4.4126803806 4.1588146215 3.8218076305 3.4545639333 4.7123889804 4.6243267584 4.5092200343 4.3572876485 4.1588146215 
3.9121860814 3.6362183941 3.368750817 6.0174235957 5.9434319871 5.8263323547 5.8809213739 5.7674481418 5.6279784266 
5.8278025282 5.718968232 5.5891129425 5.4372443565 5.7823484065 5.678536687 5.5575666702 5.4192596322 5.2659633393 
5.743164462 5.6444075337 5.5314983644 5.4046708639 5.2659633393 5.1195510325 5.7091357773 5.6152775188 5.5096229709 
5.3926039573 5.2659633393 5.1329233157 4.9978930058 5.6793730533 5.5901633916 5.4910209005 5.3824597928 5.2659633393 
5.1440684722 5.0201624502 4.8979782167 5.5683143056 5.4750190208 5.4750190208 5.3738143976 5.3738143976 5.3738143976 
5.2659633393 5.2659633393 5.2659633393 5.2659633393 5.1534979207 5.1534979207 5.1534979207 5.1534979207 5.1534979207 
5.0390747672 5.0390747672 5.0390747672 5.0390747672 5.0390747672 5.0390747672 4.9256388911 4.9256388911 4.9256388911 
4.9256388911 4.9256388911 4.9256388911 4.9256388911 4.8159880991 4.8159880991 4.8159880991 4.8159880991 4.8159880991 
4.8159880991 4.8159880991 4.8159880991 4.6087898617 4.6087898617 4.4991390697 4.6087898617 4.4991390697 4.3857031936 
4.6087898617 4.4991390697 4.3857031936 4.2712800401 4.6087898617 4.4991390697 4.3857031936 4.2712800401 4.1588146215 
4.6087898617 4.4991390697 4.3857031936 4.2712800401 4.1588146215 4.0509635631 4.6087898617 4.4991390697 4.3857031936 
4.2712800401 4.1588146215 4.0509635631 3.94975894 4.6087898617 4.4991390697 4.3857031936 4.2712800401 4.1588146215 
4.0509635631 3.94975894 3.8564636551 4.526799744 4.4046155105 4.426884955 4.2807094886 4.2918546451 4.3052269283 
4.1588146215 4.1588146215 4.1588146215 4.1588146215 4.042318168 4.0321740035 4.0201070968 4.0055183285 3.9875336042 
3.9337570603 3.9151549899 3.8932795963 3.8672112905 3.8356650183 3.7967995342 3.8346145692 3.809500442 3.7803704271 
3.7462412737 3.7058097288 3.657329819 3.5984456061 3.7454049075 3.7156421835 3.6816134988 3.6424295543 3.5969754326 
3.5438565869 3.4813459737 3.4073543651 3.5642842451 3.4524645613 3.5233842518 3.3320300872 3.403123212 3.4773852225 
3.20576226 3.2746326772 3.348015857 3.4255060145 3.0774230472 3.1415926536 3.2112816139 3.2864685043 3.3668817272 
2.95115522 3.00855263 3.0719036933 3.1415926536 3.2178377658 3.3005964304 2.8307207459 2.8800620952 2.9351694502 
2.9967168029 3.0653475414 3.1415926536 3.225752376 2.718901062 2.7598010554 2.8058000847 2.8576792927 2.91630358 
2.9825888767 3.0574329311 3.1415926536 3.5642842451 3.5233842518 3.4524645613 3.4773852225 3.403123212 3.3320300872 
3.4255060145 3.348015857 3.2746326772 3.20576226 3.3668817272 3.2864685043 3.2112816139 3.1415926536 3.0774230472 
3.3005964304 3.2178377658 3.1415926536 3.0719036933 3.00855263 2.95115522 3.225752376 3.1415926536 3.0653475414 
2.9967168029 2.9351694502 2.8800620952 2.8307207459 3.1415926536 3.0574329311 2.9825888767 2.91630358 2.8576792927 
2.8058000847 2.7598010554 2.718901062 4.526799744 4.426884955 4.4046155105 4.3052269283 4.2918546451 4.2807094886 
4.1588146215 4.1588146215 4.1588146215 4.1588146215 3.9875336042 4.0055183285 4.0201070968 4.0321740035 4.042318168 
3.7967995342 3.8356650183 3.8672112905 3.8932795963 3.9151549899 3.9337570603 3.5984456061 3.657329819 3.7058097288 
3.7462412737 3.7803704271 3.809500442 3.8346145692 3.4073543651 3.4813459737 3.5438565869 3.5969754326 3.6424295543 
3.6816134988 3.7156421835 3.7454049075 4.7123889804 4.8004512023 4.6243267584 4.9155579264 4.7123889804 4.5092200343 
5.0674903122 4.8353719722 4.5894059886 4.3572876485 5.2659633393 5.0120975802 4.7123889804 4.4126803806 4.1588146215 
5.5125918794 5.2659633393 4.9155579264 4.5092200343 4.1588146215 3.9121860814 5.7885595667 5.6029703303 5.2659633393 
4.7123889804 4.1588146215 3.8218076305 3.6362183941 6.0560271438 5.9702140275 5.7885595667 5.2659633393 4.1588146215 
3.6362183941 3.4545639333 3.368750817 0.22715816343 0.49462574053 0.3129712797 0.77059342779 0.68021497688 0.49462574053 
1.0172219679 1.0172219679 1.0172219679 1.0172219679 1.2156949949 1.271087727 1.3676273807 1.5707963268 2.1243706857 
1.3676273807 1.447813335 1.5707963268 1.7739652728 2.1243706857 2.6469669131 1.4827341049 1.5707963268 1.6937793186 
1.8705049266 2.1243706857 2.4613776767 2.8286213739 1.5707963268 1.6588585487 1.7739652728 1.9258976586 2.1243706857 
2.3709992258 2.6469669131 2.9144344902 1.7563855631 1.8785697967 1.8563003522 2.0024758186 1.9913306621 1.9779583789 
2.1243706857 2.1243706857 2.1243706857 2.1243706857 2.2408671392 2.2510113037 2.2630782103 2.2776669786 2.295651703 
2.3494282469 2.3680303173 2.3899057108 2.4159740166 2.4475202889 2.486385773 2.448570738 2.4736848652 2.5028148801 
2.5369440334 2.5773755784 2.6258554882 2.6847397011 2.5377803997 2.5675431237 2.6015718084 2.6407557529 2.6862098746 
2.7393287203 2.8018393335 2.8758309421 1.6743954455 1.6743954455 1.7840462375 1.6743954455 1.7840462375 1.8974821136 
1.6743954455 1.7840462375 1.8974821136 2.0119052671 1.6743954455 1.7840462375 1.8974821136 2.0119052671 2.1243706857 
1.6743954455 1.7840462375 1.8974821136 2.0119052671 2.1243706857 2.232221744 1.6743954455 1.7840462375 1.8974821136 
2.0119052671 2.1243706857 2.232221744 2.3334263672 1.6743954455 1.7840462375 1.8974821136 2.0119052671 2.1243706857 
2.232221744 2.3334263672 2.426721652 1.4671972081 1.3575464161 1.4671972081 1.24411054 1.3575464161 1.4671972081 
1.1296873865 1.24411054 1.3575464161 1.4671972081 1.0172219679 1.1296873865 1.24411054 1.3575464161 1.4671972081 
0.90937090954 1.0172219679 1.1296873865 1.24411054 1.3575464161 1.4671972081 0.80816628637 0.90937090954 1.0172219679 
1.1296873865 1.24411054 1.3575464161 1.4671972081 0.71487100155 0.80816628637 0.90937090954 1.0172219679 1.1296873865 
1.24411054 1.3575464161 1.4671972081 0.60381225391 0.57404952988 0.69302191562 0.54002084522 0.66790778838 0.79216440667 
0.50083690068 0.63877777351 0.77356233629 0.90072551443 0.45538277901 0.60464862014 0.75168694275 0.89058134991 1.0172219679 
0.40226393329 0.56421707518 0.72561863695 0.87851444325 1.0172219679 1.139116835 0.33975332011 0.51573716537 0.69407236469 
0.86392567495 1.0172219679 1.1502619915 1.2630228569 0.26576171152 0.45685295248 0.6552068806 0.84594095064 1.0172219679 
1.1636342747 1.2852923014 1.3852070904 0.22715816343 0.3129712797 0.49462574053 0.49462574053 0.68021497688 0.77059342779 
1.0172219679 1.0172219679 1.0172219679 1.0172219679 2.1243706857 1.5707963268 1.3676273807 1.271087727 1.2156949949 
2.6469669131 2.1243706857 1.7739652728 1.5707963268 1.447813335 1.3676273807 2.8286213739 2.4613776767 2.1243706857 
1.8705049266 1.6937793186 1.5707963268 1.4827341049 2.9144344902 2.6469669131 2.3709992258 2.1243706857 1.9258976586 
1.7739652728 1.6588585487 1.5707963268 1.7563855631 1.8563003522 1.8785697967 1.9779583789 1.9913306621 2.0024758186 
2.1243706857 2.1243706857 2.1243706857 2.1243706857 2.295651703 2.2776669786 2.2630782103 2.2510113037 2.2408671392 
2.486385773 2.4475202889 2.4159740166 2.3899057108 2.3680303173 2.3494282469 2.6847397011 2.6258554882 2.5773755784 
2.5369440334 2.5028148801 2.4736848652 2.448570738 2.8758309421 2.8018393335 2.7393287203 2.6862098746 2.6407557529 
2.6015718084 2.5675431237 2.5377803997 5.8604937156 5.901393709 5.9723133995 5.9473927383 6.0216547488 6.0927478736 
5.9992719463 6.0767621038 6.1501452836 6.2190157008 6.0578962336 6.1383094565 6.2134963469 0 0.064169606361 
6.1241815303 6.206940195 6.2831853072 0.069688960264 0.13304002361 0.19043743361 6.1990255847 0 0.07624511221 
0.14487585072 0.20642320337 0.26153055843 0.3108719077 0 0.084159722458 0.15900377685 0.22528907359 0.28391336087 
0.3357925689 0.38179159818 0.42269159155 5.8604937156 5.9723133995 5.901393709 6.0927478736 6.0216547488 5.9473927383 
6.2190157008 6.1501452836 6.0767621038 5.9992719463 0.064169606361 0 6.2134963469 6.1383094565 6.0578962336 
0.19043743361 0.13304002361 0.069688960264 6.2831853072 6.206940195 6.1241815303 0.3108719077 0.26153055843 0.20642320337 
0.14487585072 0.07624511221 6.2831853072 6.1990255847 0.42269159155 0.38179159818 0.3357925689 0.28391336087 0.22528907359 
0.15900377685 0.084159722458 0 5.6793730533 5.7091357773 5.5901633916 5.743164462 5.6152775188 5.4910209005 
5.7823484065 5.6444075337 5.5096229709 5.3824597928 5.8278025282 5.678536687 5.5314983644 5.3926039573 5.2659633393 
5.8809213739 5.718968232 5.5575666702 5.4046708639 5.2659633393 5.1440684722 5.9434319871 5.7674481418 5.5891129425 
5.4192596322 5.2659633393 5.1329233157 5.0201624502 6.0174235957 5.8263323547 5.6279784266 5.4372443565 5.2659633393 
5.1195510325 4.9978930058 4.8979782167 1.3852070904 1.2852923014 1.2630228569 1.1636342747 1.1502619915 1.139116835 
1.0172219679 1.0172219679 1.0172219679 1.0172219679 0.84594095064 0.86392567495 0.87851444325 0.89058134991 0.90072551443 
0.6552068806 0.69407236469 0.72561863695 0.75168694275 0.77356233629 0.79216440667 0.45685295248 0.51573716537 0.56421707518 
0.60464862014 0.63877777351 0.66790778838 0.69302191562 0.26576171152 0.33975332011 0.40226393329 0.45538277901 0.50083690068 
0.54002084522 0.57404952988 0.60381225391 
_paraPhiHalf 1 1002 double
0 3.1415926536 0 3.1415926536 1.5707963268 1.5707963268 1.5707963268 1.5707963268 2.5880182947 
0.5535743589 2.5880182947 0.5535743589 0 0 0 0 3.1415926536 3.1415926536 
3.1415926536 3.1415926536 3.1415926536 0.17788134 0.38438696014 0.60631181711 0.82323535693 1.0172219679 1.1799687454 
1.3118704726 1.4175000338 1.5022335207 0.17788134 0.38438696014 0.60631181711 0.82323535693 1.0172219679 1.1799687454 
1.3118704726 1.4175000338 1.5022335207 0.093902416448 0.17615329733 0.2478725152 0.31035131605 0.36486382811 0.41257334776 
0.45449736604 0.4915044461 0.52432611754 0.093902416448 0.17615329733 0.2478725152 0.31035131605 0.36486382811 0.41257334776 
0.45449736604 0.4915044461 0.52432611754 2.9637113136 2.7572056934 2.5352808365 2.3183572967 2.1243706857 1.9616239082 
1.829722181 1.7240926197 1.6393591329 2.9637113136 2.7572056934 2.5352808365 2.3183572967 2.1243706857 1.9616239082 
1.829722181 1.7240926197 1.6393591329 3.0476902371 2.9654393563 2.8937201384 2.8312413375 2.7767288255 2.7290193058 
2.6870952876 2.6500882075 2.617266536 3.0476902371 2.9654393563 2.8937201384 2.8312413375 2.7767288255 2.7290193058 
2.6870952876 2.6500882075 2.617266536 0 0 0 0 3.1415926536 3.1415926536 
3.1415926536 3.1415926536 3.1415926536 0.17788134 0.38438696014 0.60631181711 0.82323535693 1.0172219679 1.1799687454 
1.3118704726 1.4175000338 1.5022335207 0.17788134 0.38438696014 0.60631181711 0.82323535693 1.0172219679 1.1799687454 
1.3118704726 1.4175000338 1.5022335207 0.093902416448 0.17615329733 0.2478725152 0.31035131605 0.36486382811 0.41257334776 
0.45449736604 0.4915044461 0.52432611754 0.093902416448 0.17615329733 0.2478725152 0.31035131605 0.36486382811 0.41257334776 
0.45449736604 0.4915044461 0.52432611754 2.9637113136 2.7572056934 2.5352808365 2.3183572967 2.1243706857 1.9616239082 
1.829722181 1.7240926197 1.6393591329 2.9637113136 2.7572056934 2.5352808365 2.3183572967 2.1243706857 1.9616239082 
1.829722181 1.7240926197 1.6393591329 3.0476902371 2.9654393563 2.8937201384 2.8312413375 2.7767288255 2.7290193058 
2.6870952876 2.6500882075 2.617266536 3.0476902371 2.9654393563 2.8937201384 2.8312413375 2.7767288255 2.7290193058 
2.6870952876 2.6500882075 2.617266536 1.5707963268 1.5707963268 1.5707963268 1.5707963268 1.5707963268 1.5707963268 
1.5707963268 1.5707963268 1.5707963268 1.6743954455 1.7840462375 1.8974821136 2.0119052671 2.1243706857 2.232221744 
2.3334263672 2.426721652 2.5115728246 1.4671972081 1.3575464161 1.24411054 1.1296873865 1.0172219679 0.90937090954 
0.80816628637 0.71487100155 0.63001982895 1.6743954455 1.7840462375 1.8974821136 2.0119052671 2.1243706857 2.232221744 
2.3334263672 2.426721652 2.5115728246 1.4671972081 1.3575464161 1.24411054 1.1296873865 1.0172219679 0.90937090954 
0.80816628637 0.71487100155 0.63001982895 1.5707963268 1.5707963268 1.5707963268 1.5707963268 1.5707963268 1.5707963268 
1.5707963268 1.5707963268 1.5707963268 1.6743954455 1.7840462375 1.8974821136 2.0119052671 2.1243706857 2.232221744 
2.3334263672 2.426721652 2.5115728246 1.4671972081 1.3575464161 1.24411054 1.1296873865 1.0172219679 0.90937090954 
0.80816628637 0.71487100155 0.63001982895 1.6743954455 1.7840462375 1.8974821136 2.0119052671 2.1243706857 2.232221744 
2.3334263672 2.426721652 2.5115728246 1.4671972081 1.3575464161 1.24411054 1.1296873865 1.0172219679 0.90937090954 
0.80816628637 0.71487100155 0.63001982895 2.6824132222 2.7864913217 2.8992382033 3.0186096618 3.1415926536 3.0186096618 
2.8992382033 2.7864913217 2.6824132222 0.45917943135 0.35510133185 0.2423544503 0.12298299178 0 0.12298299178 
0.2423544503 0.35510133185 0.45917943135 0.22715816343 0.49462574053 0.3129712797 0.77059342779 0.68021497688 0.49462574053 
1.0172219679 1.0172219679 1.0172219679 1.0172219679 1.2156949949 1.271087727 1.3676273807 1.5707963268 2.1243706857 
1.3676273807 1.447813335 1.5707963268 1.7739652728 2.1243706857 2.6469669131 1.4827341049 1.5707963268 1.6937793186 
1.8705049266 2.1243706857 2.4613776767 2.8286213739 1.5707963268 1.6588585487 1.7739652728 1.9258976586 2.1243706857 
2.3709992258 2.6469669131 2.9144344902 0.26576171152 0.33975332011 0.45685295248 0.40226393329 0.51573716537 0.6552068806 
0.45538277901 0.56421707518 0.69407236469 0.84594095064 0.50083690068 0.60464862014 0.72561863695 0.86392567495 1.0172219679 
0.54002084522 0.63877777351 0.75168694275 0.87851444325 1.0172219679 1.1636342747 0.57404952988 0.66790778838 0.77356233629 
0.89058134991 1.0172219679 1.1502619915 1.2852923014 0.60381225391 0.69302191562 0.79216440667 0.90072551443 1.0172219679 
1.139116835 1.2630228569 1.3852070904 0.71487100155 0.80816628637 0.80816628637 0.90937090954 0.90937090954 0.90937090954 
1.0172219679 1.0172219679 1.0172219679 1.0172219679 1.1296873865 1.1296873865 1.1296873865 1.1296873865 1.1296873865 
1.24411054 1.24411054 1.24411054 1.24411054 1.24411054 1.24411054 1.3575464161 1.3575464161 1.3575464161 
1.3575464161 1.3575464161 1.3575464161 1.3575464161 1.4671972081 1.4671972081 1.4671972081 1.4671972081 1.4671972081 
1.4671972081 1.4671972081 1.4671972081 1.6743954455 1.6743954455 1.7840462375 1.6743954455 1.7840462375 1.8974821136 
1.6743954455 1.7840462375 1.8974821136 2.0119052671 1.6743954455 1.7840462375 1.8974821136 2.0119052671 2.1243706857 
1.6743954455 1.7840462375 1.8974821136 2.0119052671 2.1243706857 2.232221744 1.6743954455 1.7840462375 1.8974821136 
2.0119052671 2.1243706857 2.232221744 2.3334263672 1.6743954455 1.7840462375 1.8974821136 2.0119052671 2.1243706857 
2.232221744 2.3334263672 2.426721652 1.7563855631 1.8785697967 1.8563003522 2.0024758186 1.9913306621 1.9779583789 
2.1243706857 2.1243706857 2.1243706857 2.1243706857 2.2408671392 2.2510113037 2.2630782103 2.2776669786 2.295651703 
2.3494282469 2.3680303173 2.3899057108 2.4159740166 2.4475202889 2.486385773 2.448570738 2.4736848652 2.5028148801 
2.5369440334 2.5773755784 2.6258554882 2.6847397011 2.5377803997 2.5675431237 2.6015718084 2.6407557529 2.6862098746 
2.7393287203 2.8018393335 2.8758309421 2.718901062 2.8307207459 2.7598010554 2.95115522 2.8800620952 2.8058000847 
3.0774230472 3.00855263 2.9351694502 2.8576792927 3.0774230472 3.1415926536 3.0719036933 2.9967168029 2.91630358 
2.95115522 3.00855263 3.0719036933 3.1415926536 3.0653475414 2.9825888767 2.8307207459 2.8800620952 2.9351694502 
2.9967168029 3.0653475414 3.1415926536 3.0574329311 2.718901062 2.7598010554 2.8058000847 2.8576792927 2.91630358 
2.9825888767 3.0574329311 3.1415926536 2.718901062 2.7598010554 2.8307207459 2.8058000847 2.8800620952 2.95115522 
2.8576792927 2.9351694502 3.00855263 3.0774230472 2.91630358 2.9967168029 3.0719036933 3.1415926536 3.0774230472 
2.9825888767 3.0653475414 3.1415926536 3.0719036933 3.00855263 2.95115522 3.0574329311 3.1415926536 3.0653475414 