# vtk DataFile Version 5.1
vtk output
ASCII
DATASET POLYDATA
POINTS 1002 float
-9.54322 0.0130497 -3.13982 10.0279 -1.03351 -2.60605 -9.019 0.789147 3.29529 
9.18703 -1.0354 1.93071 -2.67997 2.41363 -2.04239 -2.05267 1.67929 1.14703 
-0.9402 -6.29138 -1.79329 -0.242795 -6.95782 1.8392 17.3897 8.70336 0.911511 
-14.096 7.39189 0.699133 15.8536 -1.05049 -0.0183551 -14.0615 -3.67675 -0.0682891 
-8.48091 -0.322672 -3.14749 -7.24771 -0.73605 -3.17809 -5.79737 -1.22374 -3.15888 
-3.98222 -1.76115 -2.97382 -1.68659 -2.282 -2.75197 0.919957 -2.65205 -2.76049 
3.53696 -2.70483 -2.91262 6.00352 -2.37219 -2.92886 8.20476 -1.75715 -2.78218 
-9.26846 0.529788 -3.1976 -8.92689 1.08728 -3.22377 -8.53819 1.61684 -3.2649 
-7.96196 2.06746 -3.29812 -7.07967 2.43454 -3.21241 -6.06845 2.75008 -3.00611 
-5.12573 3.03542 -2.80304 -4.25348 3.16219 -2.6123 -3.44223 2.94465 -2.35309 
-9.10748 -0.673485 -3.02421 -8.52897 -1.39848 -2.86816 -7.77463 -2.1784 -2.73854 
-6.88451 -2.99679 -2.63127 -5.92049 -3.75978 -2.4765 -4.89709 -4.40604 -2.29392 
-3.84277 -4.9807 -2.14021 -2.81307 -5.50427 -2.00749 -1.83834 -5.94156 -1.8889 
-10.4188 0.648882 -3.17527 -11.3433 1.36985 -3.16323 -12.2484 2.19354 -3.05763 
-13.0829 3.15241 -2.80325 -13.8206 4.24366 -2.41957 -14.3465 5.31486 -1.96638 
-14.5648 6.16102 -1.40729 -14.5486 6.74674 -0.710536 -14.3902 7.14816 0.0311548 
-10.2796 -0.125631 -3.06845 -11.0077 -0.340978 -2.95366 -11.7846 -0.640708 -2.81697 
-12.5349 -0.972493 -2.61956 -13.0976 -1.33841 -2.28264 -13.5396 -1.78279 -1.91405 
-13.9112 -2.27248 -1.61926 -14.0886 -2.78247 -1.23887 -14.0988 -3.28593 -0.674793 
9.69916 -0.791628 -2.57937 9.11428 -0.59444 -2.5486 8.27987 -0.438587 -2.54209 
7.27641 -0.393324 -2.51954 5.89355 -0.465019 -2.44512 3.86084 -0.428254 -2.37974 
1.57079 -0.091509 -2.3481 -0.318868 0.526234 -2.28618 -1.67083 1.38092 -2.17202 
9.18122 -1.78317 -2.70493 8.20874 -2.55316 -2.76846 7.11893 -3.28108 -2.79925 
5.88278 -3.94886 -2.80206 4.55698 -4.55433 -2.74699 3.2788 -5.05903 -2.602 
2.09133 -5.45881 -2.40043 0.965802 -5.79414 -2.19686 -0.0621851 -6.07432 -1.99799 
11.4972 -0.045356 -2.43736 12.9162 1.10843 -2.2761 14.2848 2.42709 -2.10351 
15.5476 3.88708 -1.88452 16.5506 5.35363 -1.58519 17.2763 6.68813 -1.19027 
17.784 7.82247 -0.732057 17.9732 8.6094 -0.22756 17.7937 8.89046 0.336549 
11.1458 -0.754933 -2.50731 12.2278 -0.493082 -2.38176 13.3074 -0.245483 -2.24313 
14.3129 -0.0278532 -2.09312 15.0963 0.141092 -1.84099 15.6429 0.193497 -1.48113 
16.0246 0.0244205 -1.14348 16.2 -0.319147 -0.823368 16.1196 -0.691363 -0.436198 
-7.91842 0.398282 3.33704 -6.67069 -0.0912013 3.34453 -5.24639 -0.72227 3.2447 
-3.5582 -1.44614 2.99433 -1.53696 -2.13966 2.66034 0.771276 -2.63643 2.30507 
3.1966 -2.73194 1.97173 5.49882 -2.3741 1.78693 7.50302 -1.74267 1.80688 
-8.60236 1.21561 3.25204 -8.09274 1.64135 3.19401 -7.47974 2.02659 3.09887 
-6.80305 2.34839 2.9355 -6.07172 2.55606 2.70151 -5.27741 2.59915 2.41459 
-4.46058 2.51375 2.10051 -3.65361 2.33629 1.78633 -2.85149 2.04863 1.47089 
-8.76197 0.1558 3.38804 -8.49456 -0.468449 3.53607 -8.14372 -1.17273 3.61269 
-7.54779 -2.07511 3.41107 -6.60841 -3.11081 2.99762 -5.38741 -4.09147 2.66544 
-4.01117 -4.95168 2.46227 -2.592 -5.73604 2.25786 -1.28436 -6.43097 2.0409 
-9.82609 1.4576 3.22507 -10.6235 2.17974 3.1066 -11.3585 2.89671 2.91742 
-12.0461 3.64412 2.71207 -12.6688 4.42081 2.48837 -13.1688 5.17087 2.2266 
-13.5914 5.9378 1.97702 -13.9579 6.67396 1.68967 -14.15 7.18027 1.25428 
-9.93529 0.729792 3.26657 -10.9408 0.596141 3.1854 -12.0184 0.307205 3.03982 
-13.0461 -0.200933 2.78552 -13.8403 -0.811973 2.37563 -14.3787 -1.38679 1.88322 
-14.7208 -2.01802 1.42319 -14.78 -2.75062 0.967339 -14.5104 -3.36435 0.452932 
8.57687 -0.952605 1.83136 7.7945 -0.926188 1.70247 6.80623 -0.913658 1.60353 
5.60161 -0.900212 1.54353 4.24314 -0.892027 1.47175 2.8224 -0.777208 1.40085 
1.40221 -0.41553 1.35346 0.0630676 0.165307 1.29172 -1.09957 0.876237 1.2106 
8.68802 -1.65196 1.90166 8.02074 -2.36758 1.85388 7.21201 -3.09234 1.84079 
6.28035 -3.78137 1.86035 5.23772 -4.4596 1.8678 4.16912 -5.10112 1.90493 
3.10464 -5.67882 2.00177 1.98215 -6.20229 2.04787 0.832742 -6.63769 1.97085 
10.4283 -0.18716 2.01516 11.7621 0.847025 2.10946 13.1527 2.08142 2.2633 
14.3669 3.38406 2.42611 15.3206 4.63933 2.46503 16.2259 5.84773 2.42913 
17.0074 6.97118 2.38122 17.3962 7.90068 2.12861 17.4635 8.50758 1.57222 
10.4918 -0.653538 2.05952 11.7998 -0.277152 2.18126 13.0261 0.00984215 2.27159 
14.1011 0.134242 2.24144 14.9648 0.112075 2.03138 15.5423 -0.0101888 1.70788 
15.8421 -0.234378 1.33891 15.9709 -0.525175 0.926791 15.985 -0.802085 0.469042 
-2.7836 2.72187 -1.75049 -2.82092 3.03398 -1.45949 -2.66805 3.21999 -1.19446 
-2.42586 3.20629 -0.870494 -2.28923 3.09537 -0.431927 -2.25523 2.95958 0.0213987 
-2.21364 2.71452 0.376403 -2.14952 2.35189 0.649577 -2.09447 1.98648 0.904049 
-1.02916 1.10317 -1.86319 1.41312 0.275856 -1.77708 4.4806 0.57281 -1.62511 
7.65227 1.79234 -1.28144 10.4429 3.24166 -0.860489 12.6528 4.63237 -0.457412 
14.3219 5.952 -0.0895425 15.601 7.13789 0.199574 16.6109 8.10187 0.495783 
-3.91124 3.90724 -2.13371 -5.02596 5.1926 -2.17407 -6.24409 6.04963 -1.98363 
-7.59762 6.5529 -1.56597 -8.9495 6.88924 -1.11415 -10.1887 7.19393 -0.748677 
-11.3082 7.46163 -0.426717 -12.3656 7.61313 -0.0663655 -13.3355 7.60112 0.333938 
-0.539026 0.819835 0.851211 1.37815 0.27318 0.596407 3.66472 0.338164 0.480489 
6.22294 1.05247 0.552241 8.86263 2.27296 0.749998 11.301 3.8224 1.0013 
13.3722 5.41737 1.22245 15.0683 6.80868 1.28233 16.3928 7.91999 1.14841 
-3.36769 2.87719 1.33491 -4.63541 4.18103 1.57433 -5.90976 5.36356 1.79668 
-7.18232 6.32777 1.9214 -8.38483 7.09408 1.925 -9.55295 7.59909 1.82844 
-10.7937 7.78747 1.65034 -12.07 7.77815 1.40083 -13.2108 7.65994 1.08192 
-0.906375 -6.61572 -1.59873 -0.884404 -6.96849 -1.35576 -0.889531 -7.32977 -1.01336 
-0.922525 -7.6545 -0.571011 -0.977242 -7.91291 -0.0855882 -0.981209 -8.06025 0.435036 
-0.837312 -8.01506 0.95444 -0.587584 -7.76323 1.35913 -0.36794 -7.38297 1.62836 
0.491495 -6.47093 -1.83727 2.1138 -6.57539 -1.88356 3.93518 -6.55482 -1.92477 
5.83985 -6.4292 -1.93864 7.69662 -6.16902 -1.88063 9.62597 -5.49719 -1.69002 
11.7163 -4.29415 -1.34211 13.6308 -2.96028 -0.894513 15.0011 -1.8837 -0.436695 
-2.3147 -6.25809 -1.62029 -3.78128 -6.17643 -1.41122 -5.3053 -6.04709 -1.22012 
-6.83173 -5.88008 -1.1199 -8.34387 -5.6745 -1.05912 -9.80594 -5.36197 -0.908778 
-11.1125 -4.9345 -0.676842 -12.2194 -4.52274 -0.461186 -13.189 -4.15075 -0.274438 
1.25238 -7.09085 1.66856 2.82183 -6.99977 1.37156 4.70502 -6.79854 1.01838 
6.85143 -6.53242 0.775501 8.9149 -6.1072 0.66615 10.7817 -5.39062 0.580214 
12.5036 -4.32203 0.476857 13.9522 -3.08189 0.341152 15.0342 -1.96315 0.160319 
-1.94515 -6.87206 1.83355 -3.89126 -6.6557 1.83966 -5.91675 -6.4517 1.8231 
-7.77376 -6.28777 1.76185 -9.33509 -6.05957 1.67931 -10.6594 -5.73051 1.48236 
-11.8014 -5.31796 1.11661 -12.7307 -4.83278 0.717139 -13.4609 -4.28833 0.341074 
18.318 9.07478 1.06465 19.1982 8.77926 1.18823 19.9312 7.78363 1.16937 
20.2086 6.49646 1.02275 19.893 5.2647 0.861564 19.3076 4.02718 0.727954 
18.6214 2.67401 0.578486 17.7293 1.28763 0.378549 16.7529 0.0232735 0.159464 
-14.884 6.80912 0.604052 -15.5176 5.89611 0.445136 -15.9992 4.76633 0.256374 
-16.3739 3.54422 0.0331065 -16.6412 2.33284 -0.195196 -16.6747 1.16045 -0.332246 
-16.3602 -0.123772 -0.353989 -15.7345 -1.5259 -0.302758 -14.9221 -2.76929 -0.198349 
-8.12166 0.160235 -3.22954 -7.70975 0.624429 -3.28128 -6.80735 -0.325788 -3.27181 
-7.16007 1.01616 -3.31024 -6.22164 0.0103682 -3.28616 -5.18812 -0.904887 -3.15897 
-6.36445 1.3955 -3.27525 -5.42487 0.305197 -3.23657 -4.33476 -0.659163 -3.04853 
-3.08156 -1.5118 -2.83972 -5.49251 1.78822 -3.11545 -4.60813 0.645028 -3.14584 
-3.39529 -0.454315 -2.96375 -2.00206 -1.32491 -2.7014 -0.503863 -2.05906 -2.6495 
-4.69332 2.08864 -2.87078 -3.90877 0.920168 -2.95225 -2.54424 -0.315041 -2.91554 
-0.886244 -1.23128 -2.71966 0.773861 -1.85583 -2.63302 2.302 -2.3528 -2.76877 
-3.79278 2.15765 -2.63362 -2.99171 0.98443 -2.67591 -1.46787 -0.268251 -2.73718 
0.480173 -1.16811 -2.732 2.28282 -1.61793 -2.70093 3.82243 -1.92213 -2.76375 
5.08426 -2.18047 -2.87873 -2.73393 1.89596 -2.41012 -1.69257 0.827578 -2.44807 
0.0324948 -0.206894 -2.49733 2.22139 -0.923358 -2.56912 4.1418 -1.17636 -2.64435 
5.56906 -1.26449 -2.69796 6.72242 -1.41192 -2.73725 7.61343 -1.57964 -2.77178 
-10.1524 1.26778 -3.20402 -11.0489 2.08263 -3.16898 -9.78214 1.93053 -3.21209 
-11.8955 2.98696 -2.98861 -10.59 2.82391 -3.13189 -9.3345 2.5682 -3.24614 
-12.6716 4.03448 -2.60739 -11.3335 3.78101 -2.82686 -10.0335 3.54881 -3.08795 
-8.66788 3.08599 -3.23145 -13.2907 5.19865 -2.13654 -11.9926 4.87411 -2.34304 
-10.6471 4.58333 -2.6807 -9.28795 4.16396 -2.97967 -7.67014 3.44123 -3.06343 
-13.6136 6.24251 -1.63322 -12.4283 6.00086 -1.85048 -11.1067 5.65791 -2.16908 
-9.78299 5.29579 -2.5268 -8.24216 4.597 -2.76232 -6.51876 3.7423 -2.84406 
-13.6644 6.94902 -1.0265 -12.5804 6.85705 -1.31564 -11.3362 6.5475 -1.63425 
-10.0496 6.23867 -1.97747 -8.66264 5.74379 -2.29706 -7.02158 4.91953 -2.56135 
-5.45508 4.05591 -2.67958 -13.5599 7.35809 -0.337432 -12.5382 7.33862 -0.694729 
-11.3918 7.10281 -1.02986 -10.1572 6.80623 -1.36072 -8.85047 6.48653 -1.71723 
-7.39911 5.95146 -2.11022 -5.89259 5.17054 -2.40942 -4.5934 4.17981 -2.46537 
-12.2993 7.80222 0.667874 -11.0512 7.97031 0.955362 -11.2386 7.79649 0.225605 
-9.76367 8.04635 1.21415 -9.97912 8.04399 0.488735 -10.1668 7.65134 -0.155309 
-8.55237 7.73587 1.43162 -8.69728 8.08646 0.743299 -8.89213 7.88539 0.0513027 
-8.99697 7.34216 -0.541351 -7.34906 6.98058 1.5589 -7.42237 7.5907 0.997414 
-7.51807 7.8378 0.267411 -7.62243 7.50837 -0.437831 -7.63561 6.97694 -1.03035 
-6.08751 5.99239 1.53739 -6.16696 6.65635 1.15888 -6.18796 7.25022 0.550755 
-6.22147 7.39546 -0.233108 -6.25707 7.04783 -0.953631 -6.27431 6.57033 -1.51886 
-4.80095 4.78614 1.36081 -4.93154 5.41777 1.10184 -4.98931 6.07065 0.697613 
[...]
POINT_DATA 1002
FIELD FieldData 4
_paraPhi 1 1002 double
6.2831853072 3.1415926536 6.2831853072 3.1415926536 4.7123889804 4.7123889804 1.5707963268 1.5707963268 3.6951670125 
5.7296109483 2.5880182947 0.5535743589 6.2831853072 6.2831853072 6.2831853072 6.2831853072 3.1415926536 3.1415926536 
3.1415926536 3.1415926536 3.1415926536 6.1053039672 5.898798347 5.6768734901 5.4599499503 5.2659633393 5.1032165617 
4.9713148346 4.8656852733 4.7809517865 0.17788134 0.38438696014 0.60631181711 0.82323535693 1.0172219679 1.1799687454 
1.3118704726 1.4175000338 1.5022335207 6.1892828907 6.1070320098 6.035312792 5.9728339911 5.9183214791 5.8706119594 
5.8286879411 5.7916808611 5.7588591896 0.093902416448 0.17615329733 0.2478725152 0.31035131605 0.36486382811 0.41257334776 
0.45449736604 0.4915044461 0.52432611754 3.3194739936 3.5259796137 3.7479044707 3.9648280105 4.1588146215 4.321561399 
4.4534631262 4.5590926874 4.6438261743 2.9637113136 2.7572056934 2.5352808365 2.3183572967 2.1243706857 1.9616239082 
1.829722181 1.7240926197 1.6393591329 3.23549507 3.3177459509 3.3894651688 3.4519439696 3.5064564817 3.5541660013 
3.5960900196 3.6330970997 3.6659187711 3.0476902371 2.9654393563 2.8937201384 2.8312413375 2.7767288255 2.7290193058 
2.6870952876 2.6500882075 2.617266536 6.2831853072 6.2831853072 6.2831853072 6.2831853072 3.1415926536 3.1415926536 
3.1415926536 3.1415926536 3.1415926536 6.1053039672 5.898798347 5.6768734901 5.4599499503 5.2659633393 5.1032165617 
4.9713148346 4.8656852733 4.7809517865 0.17788134 0.38438696014 0.60631181711 0.82323535693 1.0172219679 1.1799687454 
1.3118704726 1.4175000338 1.5022335207 6.1892828907 6.1070320098 6.035312792 5.9728339911 5.9183214791 5.8706119594 
5.8286879411 5.7916808611 5.7588591896 0.093902416448 0.17615329733 0.2478725152 0.31035131605 0.36486382811 0.41257334776 
0.45449736604 0.4915044461 0.52432611754 3.3194739936 3.5259796137 3.7479044707 3.9648280105 4.1588146215 4.321561399 
4.4534631262 4.5590926874 4.6438261743 2.9637113136 2.7572056934 2.5352808365 2.3183572967 2.1243706857 1.9616239082 
1.829722181 1.7240926197 1.6393591329 3.23549507 3.3177459509 3.3894651688 3.4519439696 3.5064564817 3.5541660013 
3.5960900196 3.6330970997 3.6659187711 3.0476902371 2.9654393563 2.8937201384 2.8312413375 2.7767288255 2.7290193058 
2.6870952876 2.6500882075 2.617266536 4.7123889804 4.7123889804 4.7123889804 4.7123889804 4.7123889804 4.7123889804 
4.7123889804 4.7123889804 4.7123889804 4.6087898617 4.4991390697 4.3857031936 4.2712800401 4.1588146215 4.0509635631 
3.94975894 3.8564636551 3.7716124825 4.8159880991 4.9256388911 5.0390747672 5.1534979207 5.2659633393 5.3738143976 
5.4750190208 5.5683143056 5.6531654782 4.6087898617 4.4991390697 4.3857031936 4.2712800401 4.1588146215 4.0509635631 
3.94975894 3.8564636551 3.7716124825 4.8159880991 4.9256388911 5.0390747672 5.1534979207 5.2659633393 5.3738143976 
5.4750190208 5.5683143056 5.6531654782 1.5707963268 1.5707963268 1.5707963268 1.5707963268 1.5707963268 1.5707963268 
1.5707963268 1.5707963268 1.5707963268 1.6743954455 1.7840462375 1.8974821136 2.0119052671 2.1243706857 2.232221744 
2.3334263672 2.426721652 2.5115728246 1.4671972081 1.3575464161 1.24411054 1.1296873865 1.0172219679 0.90937090954 
0.80816628637 0.71487100155 0.63001982895 1.6743954455 1.7840462375 1.8974821136 2.0119052671 2.1243706857 2.232221744 
2.3334263672 2.426721652 2.5115728246 1.4671972081 1.3575464161 1.24411054 1.1296873865 1.0172219679 0.90937090954 
0.80816628637 0.71487100155 0.63001982895 3.6007720849 3.4966939854 3.3839471039 3.2645756454 3.1415926536 3.0186096618 
2.8992382033 2.7864913217 2.6824132222 5.8240058758 5.9280839753 6.0408308569 6.1602023154 6.2831853072 0.12298299178 
0.2423544503 0.35510133185 0.45917943135 6.0560271438 5.7885595667 5.9702140275 5.5125918794 5.6029703303 5.7885595667 
5.2659633393 5.2659633393 5.2659633393 5.2659633393 5.0674903122 5.0120975802 4.9155579264 4.7123889804 4.1588146215 
4.9155579264 4.8353719722 4.7123889804 4.5092200343 4.1588146215 3.6362183941 4.8004512023 4.7123889804 4.5894059886 
4.4126803806 4.1588146215 3.8218076305 3.4545639333 4.7123889804 4.6243267584 4.5092200343 4.3572876485 4.1588146215 
3.9121860814 3.6362183941 3.368750817 6.0174235957 5.9434319871 5.8263323547 5.8809213739 5.7674481418 5.6279784266 
5.8278025282 5.718968232 5.5891129425 5.4372443565 5.7823484065 5.678536687 5.5575666702 5.4192596322 5.2659633393 
5.743164462 5.6444075337 5.5314983644 5.4046708639 5.2659633393 5.1195510325 5.7091357773 5.6152775188 5.5096229709 
5.3926039573 5.2659633393 5.1329233157 4.9978930058 5.6793730533 5.5901633916 5.4910209005 5.3824597928 5.2659633393 
5.1440684722 5.0201624502 4.8979782167 5.5683143056 5.4750190208 5.4750190208 5.3738143976 5.3738143976 5.3738143976 
5.2659633393 5.2659633393 5.2659633393 5.2659633393 5.1534979207 5.1534979207 5.1534979207 5.1534979207 5.1534979207 
5.0390747672 5.0390747672 5.0390747672 5.0390747672 5.0390747672 5.0390747672 4.9256388911 4.9256388911 4.9256388911 
4.9256388911 4.9256388911 4.9256388911 4.9256388911 4.8159880991 4.8159880991 4.8159880991 4.8159880991 4.8159880991 
4.8159880991 4.8159880991 4.8159880991 4.6087898617 4.6087898617 4.4991390697 4.6087898617 4.4991390697 4.3857031936 
4.6087898617 4.4991390697 4.3857031936 4.2712800401 4.6087898617 4.4991390697 4.3857031936 4.2712800401 4.1588146215 
4.6087898617 4.4991390697 4.3857031936 4.2712800401 4.1588146215 4.0509635631 4.6087898617 4.4991390697 4.3857031936 
4.2712800401 4.1588146215 4.0509635631 3.94975894 4.6087898617 4.4991390697 4.3857031936 4.2712800401 4.1588146215 
4.0509635631 3.94975894 3.8564636551 4.526799744 4.4046155105 4.426884955 4.2807094886 4.2918546451 4.3052269283 
4.1588146215 4.1588146215 4.1588146215 4.1588146215 4.042318168 4.0321740035 4.0201070968 4.0055183285 3.9875336042 
3.9337570603 3.9151549899 3.8932795963 3.8672112905 3.8356650183 3.7967995342 3.8346145692 3.809500442 3.7803704271 
3.7462412737 3.7058097288 3.657329819 3.5984456061 3.7454049075 3.7156421835 3.6816134988 3.6424295543 3.5969754326 
3.5438565869 3.4813459737 3.4073543651 3.5642842451 3.4524645613 3.5233842518 3.3320300872 3.403123212 3.4773852225 
3.20576226 3.2746326772 3.348015857 3.4255060145 3.0774230472 3.1415926536 3.2112816139 3.2864685043 3.3668817272 
2.95115522 3.00855263 3.0719036933 3.1415926536 3.2178377658 3.3005964304 2.8307207459 2.8800620952 2.9351694502 
2.9967168029 3.0653475414 3.1415926536 3.225752376 2.718901062 2.7598010554 2.8058000847 2.8576792927 2.91630358 
2.9825888767 3.0574329311 3.1415926536 3.5642842451 3.5233842518 3.4524645613 3.4773852225 3.403123212 3.3320300872 
3.4255060145 3.348015857 3.2746326772 3.20576226 3.3668817272 3.2864685043 3.2112816139 3.1415926536 3.0774230472 
3.3005964304 3.2178377658 3.1415926536 3.0719036933 3.00855263 2.95115522 3.225752376 3.1415926536 3.0653475414 
2.9967168029 2.9351694502 2.8800620952 2.8307207459 3.1415926536 3.0574329311 2.9825888767 2.91630358 2.8576792927 
2.8058000847 2.7598010554 2.718901062 4.526799744 4.426884955 4.4046155105 4.3052269283 4.2918546451 4.2807094886 
4.1588146215 4.1588146215 4.1588146215 4.1588146215 3.9875336042 4.0055183285 4.0201070968 4.0321740035 4.042318168 
3.7967995342 3.8356650183 3.8672112905 3.8932795963 3.9151549899 3.9337570603 3.5984456061 3.657329819 3.7058097288 
3.7462412737 3.7803704271 3.809500442 3.8346145692 3.4073543651 3.4813459737 3.5438565869 3.5969754326 3.6424295543 
3.6816134988 3.7156421835 3.7454049075 4.7123889804 4.8004512023 4.6243267584 4.9155579264 4.7123889804 4.5092200343 
5.0674903122 4.8353719722 4.5894059886 4.3572876485 5.2659633393 5.0120975802 4.7123889804 4.4126803806 4.1588146215 
5.5125918794 5.2659633393 4.9155579264 4.5092200343 4.1588146215 3.9121860814 5.7885595667 5.6029703303 5.2659633393 
4.7123889804 4.1588146215 3.8218076305 3.6362183941 6.0560271438 5.9702140275 5.7885595667 5.2659633393 4.1588146215 
3.6362183941 3.4545639333 3.368750817 0.22715816343 0.49462574053 0.3129712797 0.77059342779 0.68021497688 0.49462574053 
1.0172219679 1.0172219679 1.0172219679 1.0172219679 1.2156949949 1.271087727 1.3676273807 1.5707963268 2.1243706857 
1.3676273807 1.447813335 1.5707963268 1.7739652728 2.1243706857 2.6469669131 1.4827341049 1.5707963268 1.6937793186 
1.8705049266 2.1243706857 2.4613776767 2.8286213739 1.5707963268 1.6588585487 1.7739652728 1.9258976586 2.1243706857 
2.3709992258 2.6469669131 2.9144344902 1.7563855631 1.8785697967 1.8563003522 2.0024758186 1.9913306621 1.9779583789 
2.1243706857 2.1243706857 2.1243706857 2.1243706857 2.2408671392 2.2510113037 2.2630782103 2.2776669786 2.295651703 
2.3494282469 2.3680303173 2.3899057108 2.4159740166 2.4475202889 2.486385773 2.448570738 2.4736848652 2.5028148801 
2.5369440334 2.5773755784 2.6258554882 2.6847397011 2.5377803997 2.5675431237 2.6015718084 2.6407557529 2.6862098746 
2.7393287203 2.8018393335 2.8758309421 1.6743954455 1.6743954455 1.7840462375 1.6743954455 1.7840462375 1.8974821136 
1.6743954455 1.7840462375 1.8974821136 2.0119052671 1.6743954455 1.7840462375 1.8974821136 2.0119052671 2.1243706857 
1.6743954455 1.7840462375 1.8974821136 2.0119052671 2.1243706857 2.232221744 1.6743954455 1.7840462375 1.8974821136 
2.0119052671 2.1243706857 2.232221744 2.3334263672 1.6743954455 1.7840462375 1.8974821136 2.0119052671 2.1243706857 
2.232221744 2.3334263672 2.426721652 1.4671972081 1.3575464161 1.4671972081 1.24411054 1.3575464161 1.4671972081 
1.1296873865 1.24411054 1.3575464161 1.4671972081 1.0172219679 1.1296873865 1.24411054 1.3575464161 1.4671972081 
0.90937090954 1.0172219679 1.1296873865 1.24411054 1.3575464161 1.4671972081 0.80816628637 0.90937090954 1.0172219679 
1.1296873865 1.24411054 1.3575464161 1.4671972081 0.71487100155 0.80816628637 0.90937090954 1.0172219679 1.1296873865 
1.24411054 1.3575464161 1.4671972081 0.60381225391 0.57404952988 0.69302191562 0.54002084522 0.66790778838 0.79216440667 
0.50083690068 0.63877777351 0.77356233629 0.90072551443 0.45538277901 0.60464862014 0.75168694275 0.89058134991 1.0172219679 
0.40226393329 0.56421707518 0.72561863695 0.87851444325 1.0172219679 1.139116835 0.33975332011 0.51573716537 0.69407236469 
0.86392567495 1.0172219679 1.1502619915 1.2630228569 0.26576171152 0.45685295248 0.6552068806 0.84594095064 1.0172219679 
1.1636342747 1.2852923014 1.3852070904 0.22715816343 0.3129712797 0.49462574053 0.49462574053 0.68021497688 0.77059342779 
1.0172219679 1.0172219679 1.0172219679 1.0172219679 2.1243706857 1.5707963268 1.3676273807 1.271087727 1.2156949949 
2.6469669131 2.1243706857 1.7739652728 1.5707963268 1.447813335 1.3676273807 2.8286213739 2.4613776767 2.1243706857 
1.8705049266 1.6937793186 1.5707963268 1.4827341049 2.9144344902 2.6469669131 2.3709992258 2.1243706857 1.9258976586 
1.7739652728 1.6588585487 1.5707963268 1.7563855631 1.8563003522 1.8785697967 1.9779583789 1.9913306621 2.0024758186 
2.1243706857 2.1243706857 2.1243706857 2.1243706857 2.295651703 2.2776669786 2.2630782103 2.2510113037 2.2408671392 
2.486385773 2.4475202889 2.4159740166 2.3899057108 2.3680303173 2.3494282469 2.6847397011 2.6258554882 2.5773755784 
2.5369440334 2.5028148801 2.4736848652 2.448570738 2.8758309421 2.8018393335 2.7393287203 2.6862098746 2.6407557529 
2.6015718084 2.5675431237 2.5377803997 5.8604937156 5.901393709 5.9723133995 5.9473927383 6.0216547488 6.0927478736 
5.9992719463 6.0767621038 6.1501452836 6.2190157008 6.0578962336 6.1383094565 6.2134963469 0 0.064169606361 
6.1241815303 6.206940195 6.2831853072 0.069688960264 0.13304002361 0.19043743361 6.1990255847 0 0.07624511221 
0.14487585072 0.20642320337 0.26153055843 0.3108719077 0 0.084159722458 0.15900377685 0.22528907359 0.28391336087 
0.3357925689 0.38179159818 0.42269159155 5.8604937156 5.9723133995 5.901393709 6.0927478736 6.0216547488 5.9473927383 
6.2190157008 6.1501452836 6.0767621038 5.9992719463 0.064169606361 0 6.2134963469 6.1383094565 6.0578962336 
0.19043743361 0.13304002361 0.069688960264 6.2831853072 6.206940195 6.1241815303 0.3108719077 0.26153055843 0.20642320337 
0.14487585072 0.07624511221 6.2831853072 6.1990255847 0.42269159155 0.38179159818 0.3357925689 0.28391336087 0.22528907359 
0.15900377685 0.084159722458 0 5.6793730533 5.7091357773 5.5901633916 5.743164462 5.6152775188 5.4910209005 
5.7823484065 5.6444075337 5.5096229709 5.3824597928 5.8278025282 5.678536687 5.5314983644 5.3926039573 5.2659633393 
5.8809213739 5.718968232 5.5575666702 5.4046708639 5.2659633393 5.1440684722 5.9434319871 5.7674481418 5.5891129425 
5.4192596322 5.2659633393 5.1329233157 5.0201624502 6.0174235957 5.8263323547 5.6279784266 5.4372443565 5.2659633393 
5.1195510325 4.9978930058 4.8979782167 1.3852070904 1.2852923014 1.2630228569 1.1636342747 1.1502619915 1.139116835 
1.0172219679 1.0172219679 1.0172219679 1.0172219679 0.84594095064 0.86392567495 0.87851444325 0.89058134991 0.90072551443 
0.6552068806 0.69407236469 0.72561863695 0.75168694275 0.77356233629 0.79216440667 0.45685295248 0.51573716537 0.56421707518 
0.60464862014 0.63877777351 0.66790778838 0.69302191562 0.26576171152 0.33975332011 0.40226393329 0.45538277901 0.50083690068 
0.54002084522 0.57404952988 0.60381225391 
_paraPhiHalf 1 1002 double
0 3.1415926536 0 3.1415926536 1.5707963268 1.5707963268 1.5707963268 1.5707963268 2.5880182947 
0.5535743589 2.5880182947 0.5535743589 0 0 0 0 3.1415926536 3.1415926536 
3.1415926536 3.1415926536 3.1415926536 0.17788134 0.38438696014 0.60631181711 0.82323535693 1.0172219679 1.1799687454 
1.3118704726 1.4175000338 1.5022335207 0.17788134 0.38438696014 0.60631181711 0.82323535693 1.0172219679 1.1799687454 
1.3118704726 1.4175000338 1.5022335207 0.093902416448 0.17615329733 0.2478725152 0.31035131605 0.36486382811 0.41257334776 
0.45449736604 0.4915044461 0.52432611754 0.093902416448 0.17615329733 0.2478725152 0.31035131605 0.36486382811 0.41257334776 
0.45449736604 0.4915044461 0.52432611754 2.9637113136 2.7572056934 2.5352808365 2.3183572967 2.1243706857 1.9616239082 
1.829722181 1.7240926197 1.6393591329 2.9637113136 2.7572056934 2.5352808365 2.3183572967 2.1243706857 1.9616239082 
1.829722181 1.7240926197 1.6393591329 3.0476902371 2.9654393563 2.8937201384 2.8312413375 2.7767288255 2.7290193058 
2.6870952876 2.6500882075 2.617266536 3.0476902371 2.9654393563 2.8937201384 2.8312413375 2.7767288255 2.7290193058 
2.6870952876 2.6500882075 2.617266536 0 0 0 0 3.1415926536 3.1415926536 
3.1415926536 3.1415926536 3.1415926536 0.17788134 0.38438696014 0.60631181711 0.82323535693 1.0172219679 1.1799687454 
1.3118704726 1.4175000338 1.5022335207 0.17788134 0.38438696014 0.60631181711 0.82323535693 1.0172219679 1.1799687454 
1.3118704726 1.4175000338 1.5022335207 0.093902416448 0.17615329733 0.2478725152 0.31035131605 0.36486382811 0.41257334776 
0.45449736604 0.4915044461 0.52432611754 0.093902416448 0.17615329733 0.2478725152 0.31035131605 0.36486382811 0.41257334776 
0.45449736604 0.4915044461 0.52432611754 2.9637113136 2.7572056934 2.5352808365 2.3183572967 2.1243706857 1.9616239082 
1.829722181 1.7240926197 1.6393591329 2.9637113136 2.7572056934 2.5352808365 2.3183572967 2.1243706857 1.9616239082 
1.829722181 1.7240926197 1.6393591329 3.0476902371 2.9654393563 2.8937201384 2.8312413375 2.7767288255 2.7290193058 
2.6870952876 2.6500882075 2.617266536 3.0476902371 2.9654393563 2.8937201384 2.8312413375 2.7767288255 2.7290193058 
2.6870952876 2.6500882075 2.617266536 1.5707963268 1.5707963268 1.5707963268 1.5707963268 1.5707963268 1.5707963268 
1.5707963268 1.5707963268 1.5707963268 1.6743954455 1.7840462375 1.8974821136 2.0119052671 2.1243706857 2.232221744 
2.3334263672 2.426721652 2.5115728246 1.4671972081 1.3575464161 1.24411054 1.1296873865 1.0172219679 0.90937090954 
0.80816628637 0.71487100155 0.63001982895 1.6743954455 1.7840462375 1.8974821136 2.0119052671 2.1243706857 2.232221744 
2.3334263672 2.426721652 2.5115728246 1.4671972081 1.3575464161 1.24411054 1.1296873865 1.0172219679 0.90937090954 
0.80816628637 0.71487100155 0.63001982895 1.5707963268 1.5707963268 1.5707963268 1.5707963268 1.5707963268 1.5707963268 
1.5707963268 1.5707963268 1.5707963268 1.6743954455 1.7840462375 1.8974821136 2.0119052671 2.1243706857 2.232221744 
2.3334263672 2.426721652 2.5115728246 1.4671972081 1.3575464161 1.24411054 1.1296873865 1.0172219679 0.90937090954 
0.80816628637 0.71487100155 0.63001982895 1.6743954455 1.7840462375 1.8974821136 2.0119052671 2.1243706857 2.232221744 
2.3334263672 2.426721652 2.5115728246 1.4671972081 1.3575464161 1.24411054 1.1296873865 1.0172219679 0.90937090954 
0.80816628637 0.71487100155 0.63001982895 2.6824132222 2.7864913217 2.8992382033 3.0186096618 3.1415926536 3.0186096618 
2.8992382033 2.7864913217 2.6824132222 0.45917943135 0.35510133185 0.2423544503 0.12298299178 0 0.12298299178 
0.2423544503 0.35510133185 0.45917943135 0.22715816343 0.49462574053 0.3129712797 0.77059342779 0.68021497688 0.49462574053 
1.0172219679 1.0172219679 1.0172219679 1.0172219679 1.2156949949 1.271087727 1.3676273807 1.5707963268 2.1243706857 
1.3676273807 1.447813335 1.5707963268 1.7739652728 2.1243706857 2.6469669131 1.4827341049 1.5707963268 1.6937793186 
1.8705049266 2.1243706857 2.4613776767 2.8286213739 1.5707963268 1.6588585487 1.7739652728 1.9258976586 2.1243706857 
2.3709992258 2.6469669131 2.9144344902 0.26576171152 0.33975332011 0.45685295248 0.40226393329 0.51573716537 0.6552068806 
0.45538277901 0.56421707518 0.69407236469 0.84594095064 0.50083690068 0.60464862014 0.72561863695 0.86392567495 1.0172219679 
0.54002084522 0.63877777351 0.75168694275 0.87851444325 1.0172219679 1.1636342747 0.57404952988 0.66790778838 0.77356233629 
0.89058134991 1.0172219679 1.1502619915 1.2852923014 0.60381225391 0.69302191562 0.79216440667 0.90072551443 1.0172219679 
1.139116835 1.2630228569 1.3852070904 0.71487100155 0.80816628637 0.80816628637 0.90937090954 0.90937090954 0.90937090954 
1.0172219679 1.0172219679 1.0172219679 1.0172219679 1.1296873865 1.1296873865 1.1296873865 1.1296873865 1.1296873865 
1.24411054 1.24411054 1.24411054 1.24411054 1.24411054 1.24411054 1.3575464161 1.3575464161 1.3575464161 
1.3575464161 1.3575464161 1.3575464161 1.3575464161 1.4671972081 1.4671972081 1.4671972081 1.4671972081 1.4671972081 
1.4671972081 1.4671972081 1.4671972081 1.6743954455 1.6743954455 1.7840462375 1.6743954455 1.7840462375 1.8974821136 
1.6743954455 1.7840462375 1.8974821136 2.0119052671 1.6743954455 1.7840462375 1.8974821136 2.0119052671 2.1243706857 
1.6743954455 1.7840462375 1.8974821136 2.0119052671 2.1243706857 2.232221744 1.6743954455 1.7840462375 1.8974821136 
2.0119052671 2.1243706857 2.232221744 2.3334263672 1.6743954455 1.7840462375 1.8974821136 2.0119052671 2.1243706857 
2.232221744 2.3334263672 2.426721652 1.7563855631 1.8785697967 1.8563003522 2.0024758186 1.9913306621 1.9779583789 
2.1243706857 2.1243706857 2.1243706857 2.1243706857 2.2408671392 2.2510113037 2.2630782103 2.2776669786 2.295651703 
2.3494282469 2.3680303173 2.3899057108 2.4159740166 2.4475202889 2.486385773 2.448570738 2.4736848652 2.5028148801 
2.5369440334 2.5773755784 2.6258554882 2.6847397011 2.5377803997 2.5675431237 2.6015718084 2.6407557529 2.6862098746 
2.7393287203 2.8018393335 2.8758309421 2.718901062 2.8307207459 2.7598010554 2.95115522 2.8800620952 2.8058000847 
3.0774230472 3.00855263 2.9351694502 2.8576792927 3.0774230472 3.1415926536 3.0719036933 2.9967168029 2.91630358 
2.95115522 3.00855263 3.0719036933 3.1415926536 3.0653475414 2.9825888767 2.8307207459 2.8800620952 2.9351694502 
2.9967168029 3.0653475414 3.1415926536 3.0574329311 2.718901062 2.7598010554 2.8058000847 2.8576792927 2.91630358 
2.9825888767 3.0574329311 3.1415926536 2.718901062 2.7598010554 2.8307207459 2.8058000847 2.8800620952 2.95115522 
2.8576792927 2.9351694502 3.00855263 3.0774230472 2.91630358 2.9967168029 3.0719036933 3.1415926536 3.0774230472 
2.9825888767 3.0653475414 3.1415926536 3.0719036933 3.00855263 2.95115522 3.0574329311 3.1415926536 3.0653475414 