# vtk DataFile Version 5.1
vtk output
ASCII
DATASET POLYDATA
POINTS 100 float
-4.66561 4.92159 1.33544 -4.67231 4.91061 1.33293 -4.69254 4.87603 1.32943 
-4.7267 4.81932 1.32557 -4.77519 4.74262 1.32222 -4.8382 4.64847 1.32025 
-4.91537 4.53937 1.32033 -5.00569 4.41744 1.32273 -5.10737 4.28414 1.32725 
-5.21802 4.14017 1.3332 -5.33489 3.98548 1.33959 -5.45527 3.81951 1.34527 
-5.57693 3.64141 1.34924 -5.69849 3.4504 1.3508 -5.81969 3.24602 1.34975 
-5.94145 3.02834 1.34639 -6.06573 2.79804 1.34148 -6.19519 2.55636 1.33598 
-6.33273 2.3049 1.3309 -6.48101 2.04547 1.32697 -6.64196 1.77975 1.3245 
-6.81651 1.50916 1.32323 -7.00447 1.23471 1.32241 -7.20465 0.956947 1.32089 
-7.41512 0.676017 1.31738 -7.63369 0.391793 1.31072 -7.85833 0.104012 1.30011 
-8.08752 -0.187588 1.28529 -8.32056 -0.483177 1.26655 -8.55757 -0.782802 1.2447 
-8.79936 -1.08641 1.22085 -9.04715 -1.39393 1.19611 -9.3022 -1.7053 1.17139 
-9.5654 -2.02057 1.14716 -9.83708 -2.33986 1.12334 -10.1169 -2.6633 1.09935 
-10.4039 -2.99097 1.07425 -10.6967 -3.32271 1.04702 -10.9943 -3.65813 1.01685 
-11.2959 -3.99649 0.983354 -11.6016 -4.33692 0.946758 -11.9124 -4.6785 0.907881 
-12.2303 -5.02067 0.867979 -12.5577 -5.36354 0.828443 -12.8971 -5.70822 0.790429 
-13.2506 -6.05707 0.754467 -13.6187 -6.41381 0.720172 -14.0004 -6.78331 0.686095 
-14.3926 -7.1713 0.649778 -14.7902 -7.58379 0.608011 -15.1864 -8.0264 0.557252 
-15.5734 -8.50367 0.494148 -15.943 -9.01847 0.416052 -16.2879 -9.57155 0.321445 
-16.602 -10.1614 0.210181 -16.8813 -10.7845 0.0835107 -17.1242 -11.4356 -0.0561283 
-17.3311 -12.1083 -0.205511 -17.5048 -12.796 -0.36114 -17.6492 -13.4925 -0.519781 
-17.7688 -14.1925 -0.678921 -17.8681 -14.8921 -0.837065 -17.9509 -15.5886 -0.993827 
-18.0197 -16.2807 -1.14981 -18.0755 -16.968 -1.3063 -18.1183 -17.6502 -1.46488 
-18.1466 -18.327 -1.62699 -18.1587 -18.9976 -1.79357 -18.1526 -19.6601 -1.96486 
-18.1264 -20.3123 -2.14034 -18.0794 -20.9509 -2.31887 -18.0115 -21.5726 -2.49893 
-17.9236 -22.1746 -2.67894 -17.8177 -22.7545 -2.85758 -17.6964 -23.3109 -3.03401 
-17.5629 -23.8437 -3.20797 -17.4206 -24.354 -3.37969 -17.2728 -24.8436 -3.54973 
-17.1227 -25.3146 -3.71864 -16.9734 -25.7694 -3.88674 -16.8274 -26.2097 -4.05379 
-16.6871 -26.6364 -4.21891 -16.5545 -27.0493 -4.38053 -16.4313 -27.4474 -4.53659 
-16.3186 -27.8288 -4.68479 -16.2175 -28.191 -4.82291 -16.1282 -28.5314 -4.94914 
-16.0509 -28.8477 -5.06234 -15.9851 -29.1381 -5.16211 -15.9299 -29.4015 -5.24886 
-15.8843 -29.6375 -5.32356 -15.847 -29.8461 -5.38753 -15.8167 -30.028 -5.44219 
-15.7923 -30.184 -5.48872 -15.7727 -30.3149 -5.52793 -15.7573 -30.4213 -5.56016 
-15.7456 -30.5038 -5.58533 -15.7373 -30.5625 -5.60309 -15.7322 -30.5976 -5.61299 
-15.7305 -30.6092 -5.61471 
LINES 2 100
OFFSETS vtktypeint64
0 100 
CONNECTIVITY vtktypeint64
0 1 2 3 4 5 6 7 8 
9 10 11 12 13 14 15 16 17 
18 19 20 21 22 23 24 25 26 
27 28 29 30 31 32 33 34 35 
36 37 38 39 40 41 42 43 44 
45 46 47 48 49 50 51 52 53 
54 55 56 57 58 59 60 61 62 
63 64 65 66 67 68 69 70 71 
72 73 74 75 76 77 78 79 80 
81 82 83 84 85 86 87 88 89 
90 91 92 93 94 95 96 97 98 
99 
POINT_DATA 100
FIELD FieldData 3
_theta 1 100 double
0 0.031733259127 0.063466518254 0.095199777382 0.12693303651 0.15866629564 0.19039955476 0.22213281389 0.25386607302 
0.28559933214 0.31733259127 0.3490658504 0.38079910953 0.41253236865 0.44426562778 0.47599888691 0.50773214603 0.53946540516 
0.57119866429 0.60293192342 0.63466518254 0.66639844167 0.6981317008 0.72986495992 0.76159821905 0.79333147818 0.82506473731 
0.85679799643 0.88853125556 0.92026451469 0.95199777382 0.98373103294 1.0154642921 1.0471975512 1.0789308103 1.1106640695 
1.1423973286 1.1741305877 1.2058638468 1.237597106 1.2693303651 1.3010636242 1.3327968833 1.3645301425 1.3962634016 
1.4279966607 1.4597299198 1.491463179 1.5231964381 1.5549296972 1.5866629564 1.6183962155 1.6501294746 1.6818627337 
1.7135959929 1.745329252 1.7770625111 1.8087957702 1.8405290294 1.8722622885 1.9039955476 1.9357288068 1.9674620659 
1.999195325 2.0309285841 2.0626618433 2.0943951024 2.1261283615 2.1578616206 2.1895948798 2.2213281389 2.253061398 
2.2847946572 2.3165279163 2.3482611754 2.3799944345 2.4117276937 2.4434609528 2.4751942119 2.506927471 2.5386607302 
2.5703939893 2.6021272484 2.6338605076 2.6655937667 2.6973270258 2.7290602849 2.7607935441 2.7925268032 2.8242600623 
2.8559933214 2.8877265806 2.9194598397 2.9511930988 2.982926358 3.0146596171 3.0463928762 3.0781261353 3.1098593945 
3.1415926536 
_radius 1 100 double
5.7259961031e-15 0.28038206638 0.56078500422 0.84100723744 1.1205519771 1.3985387474 1.6736738286 1.9442934531 2.208490348 
2.4643174319 2.7100338853 2.9443344347 3.1664988523 3.3764188569 3.5744944871 3.7614279748 3.9379696868 4.104682439 
4.2617854889 4.4091182953 4.5462309174 4.6725715972 4.787714127 4.8915573073 4.9844391712 5.0671354678 5.1407457522 
5.2065002388 5.2655376476 5.3187053892 5.3664214709 5.4086190997 5.4447766775 5.474021142 5.495280877 5.5074540227 
5.5095505398 5.5007682605 5.4804807044 5.4481460627 5.4031806311 5.3448604777 5.2723128737 5.1846355148 5.081145549 
4.9617212806 4.8271650076 4.6794942486 4.5220707965 4.359510213 4.1973742382 4.0417113045 3.8985405204 3.7733527028 
3.6706476557 3.5934904591 3.5430972459 3.5185430371 3.5167408831 3.5328048763 3.5607915718 3.5946727098 3.6292994823 
3.6611260382 3.6885472247 3.7118132955 3.7325744555 3.7531718547 3.7758313558 3.8019335896 3.8315223369 3.8631615531 
3.8941611213 3.9210927644 3.9404502707 3.949289547 3.945705311 3.9290477698 3.8998441265 3.8594556868 3.8095564308 
3.7515486488 3.6860324617 3.6124295332 3.5288395059 3.4321800405 3.3186161229 3.1842170355 3.0257064444 2.8411236616 
2.6302198207 2.3944794958 2.1367693459 1.860734054 1.5701416256 1.268387753 0.95829019248 0.64216776259 0.3220724747 
2.9966274072e-14 
_area 1 100 double
0 0.22985636765 0.91675337495 2.0519354345 3.6189699359 5.5926441975 7.9393577121 10.619050008 13.587949387 
16.801281028 20.215313419 23.788396741 27.480907349 31.254412349 35.070840612 38.892559382 42.683664421 46.411809082 
50.049377106 53.573297176 56.963897098 60.203880385 63.278201549 66.17473725 68.8850016 71.404077712 73.729344665 
75.858342625 77.786940837 79.509250986 81.020004398 82.318482091 83.411174178 84.309493638 85.021355141 85.541364028 
85.847008889 85.902301753 85.663757015 85.084486444 84.116578734 82.714226671 80.839522795 78.470998799 75.613384177 
72.306366189 68.629966608 64.703981697 60.679215178 56.720092278 52.981944703 49.591114008 46.637764393 44.178725924 
42.236854087 40.807212559 39.872052852 39.395934067 39.308188395 39.502337349 39.857964142 40.266425183 40.644793305 
40.93828899 41.121149403 41.20181726 41.225343583 41.262002303 41.381012015 41.620632647 41.970708573 42.376160777 
42.755999617 43.026217117 43.118763185 42.992740936 42.635290144 42.052471528 41.255702764 40.252834318 39.048638257 
37.650019674 36.068527212 34.317876648 32.40870208 30.343879136 28.117374032 25.718569349 23.142068702 20.400001996 
17.531452843 14.604343543 11.70905239 8.9470994914 6.4195584066 4.2184280753 2.4218525032 1.0922346624 0.27547756865 
1.4546327488e-13 
