# vtk DataFile Version 5.1
vtk output
ASCII
DATASET POLYDATA
POINTS 1002 float
-10.5053 0.146134 -2.23835 -24.4397 -14.3693 -4.65797 -9.96183 -2.94949 3.88743 
-23.7895 -15.1881 -0.11436 -14.0784 -6.671 -2.48443 -14.5215 -7.80583 0.320385 
-21.2692 -3.0696 -0.838977 -21.007 -3.65125 2.83611 -22.1365 -25.879 -5.45682 
-1.82865 -2.09107 -0.325582 -28.3251 -19.7534 -3.26768 -10.4394 5.04353 2.32684 
-11.5793 -0.53422 -2.31058 -12.8193 -1.33138 -2.38124 -14.3072 -2.27475 -2.3948 
-16.1978 -3.44019 -2.42193 -18.3539 -4.96484 -2.6352 -20.3165 -6.85839 -3.05786 
-21.8431 -8.90612 -3.54206 -22.9956 -10.8952 -3.97315 -23.8428 -12.7326 -4.33527 
-10.3434 -0.321254 -2.48001 -10.1921 -0.916251 -2.71329 -10.0882 -1.65264 -2.8761 
-10.1387 -2.47733 -2.97553 -10.3536 -3.34684 -3.10856 -10.6927 -4.23736 -3.27003 
-11.2394 -5.04452 -3.26738 -12.0532 -5.67211 -3.02024 -13.0432 -6.17399 -2.70132 
-11.353 0.155425 -2.05227 -12.3517 0.129098 -1.88377 -13.484 0.0356069 -1.70676 
-14.641 -0.18426 -1.50065 -15.7925 -0.532792 -1.28381 -17.0058 -0.968539 -1.09561 
-18.234 -1.48006 -0.976234 -19.3662 -2.03984 -0.923632 -20.3771 -2.58088 -0.88865 
-9.35931 0.506632 -2.34235 -8.15075 0.79194 -2.43198 -6.95854 0.900389 -2.39974 
-5.8167 0.800227 -2.21081 -4.72514 0.562419 -1.97246 -3.75728 0.219396 -1.77848 
-2.97547 -0.255776 -1.56111 -2.36663 -0.84063 -1.22053 -1.96317 -1.4741 -0.778831 
-10.0505 0.825541 -2.06355 -9.73489 1.5538 -1.87185 -9.5489 2.27837 -1.5793 
-9.43042 2.94264 -1.13376 -9.4134 3.54989 -0.628322 -9.53257 4.12016 -0.148907 
-9.71926 4.60702 0.371116 -9.94147 4.92876 1.00257 -10.198 5.06117 1.69199 
-23.9538 -14.1489 -4.67964 -23.3903 -13.8232 -4.59646 -22.7192 -13.3273 -4.42942 
-21.9279 -12.5909 -4.2037 -21.0848 -11.6388 -3.90224 -20.1387 -10.4985 -3.54428 
-18.8486 -9.18458 -3.17678 -17.2062 -7.91833 -2.833 -15.532 -7.03919 -2.58414 
-24.5532 -13.5283 -4.35185 -24.5691 -12.5234 -4.00015 -24.4528 -11.3486 -3.66071 
-24.2232 -10.0417 -3.30138 -23.8819 -8.65196 -2.89641 -23.4297 -7.25047 -2.48852 
-22.9122 -5.95231 -2.07225 -22.3585 -4.83519 -1.6328 -21.7932 -3.88692 -1.21236 
-24.636 -15.854 -5.0153 -24.7766 -17.4717 -5.37604 -24.8008 -19.2237 -5.74793 
-24.6165 -21.0431 -6.11893 -24.259 -22.7651 -6.45946 -23.8094 -24.2352 -6.75698 
-23.2323 -25.3483 -6.89683 -22.6089 -25.9994 -6.68532 -22.2048 -26.1471 -6.13268 
-25.0277 -15.4166 -4.81698 -25.6285 -16.4118 -4.97975 -26.215 -17.3286 -5.09133 
-26.7115 -18.2112 -5.09362 -27.0859 -19.0181 -4.98802 -27.4117 -19.5767 -4.80175 
-27.7676 -19.8621 -4.55783 -28.098 -20.0014 -4.24655 -28.2886 -19.9932 -3.81573 
-11.0504 -3.49434 3.83018 -12.3304 -4.0067 3.63154 -13.8589 -4.58539 3.31731 
-15.6472 -5.4187 2.94971 -17.6147 -6.62387 2.4975 -19.5215 -8.17415 1.88882 
-21.0854 -9.94023 1.20954 -22.2494 -11.7615 0.633866 -23.1264 -13.5306 0.213819 
-9.75224 -3.40366 3.60726 -9.64136 -3.91981 3.2902 -9.68193 -4.516 2.9886 
-9.91644 -5.1304 2.60129 -10.3371 -5.70393 2.12066 -10.9002 -6.231 1.71116 
-11.6121 -6.69577 1.37016 -12.5049 -7.08384 0.995315 -13.5184 -7.43412 0.625916 
-10.9107 -2.8578 4.08808 -11.9981 -2.76136 4.21429 -13.2193 -2.67152 4.28184 
-14.5731 -2.62965 4.31366 -15.9303 -2.65718 4.25004 -17.1305 -2.75647 4.05324 
-18.2055 -2.91756 3.7737 -19.2365 -3.11561 3.45665 -20.1864 -3.35312 3.1344 
-8.77203 -2.65912 3.72238 -7.60948 -2.38756 3.49352 -6.55997 -2.14897 3.1468 
-5.54828 -1.94692 2.7023 -4.49583 -1.82573 2.27779 -3.53551 -1.82482 1.87861 
-2.77972 -1.90013 1.41044 -2.2056 -1.98157 0.859503 -1.86244 -2.04507 0.264163 
-9.48823 -2.22896 3.9451 -9.03141 -1.28694 3.83211 -8.65967 -0.172561 3.66108 
-8.44749 0.984965 3.58618 -8.3917 2.1279 3.54542 -8.48422 3.2575 3.41831 
-8.79253 4.22592 3.26839 -9.31649 4.83432 3.09729 -9.91326 5.06782 2.78205 
-23.2948 -14.9164 -0.0916768 -22.7043 -14.4348 -0.112952 -22.0039 -13.752 -0.123 
-21.2081 -12.9463 -0.046888 -20.3066 -12.0241 0.0768717 -19.2945 -10.9659 0.197738 
-18.22 -9.89734 0.342277 -17.087 -8.98295 0.455711 -15.8474 -8.28171 0.439805 
-23.8864 -14.329 0.0526871 -23.9534 -13.347 0.283819 -23.945 -12.2331 0.592826 
-23.7774 -10.9591 0.932523 -23.4259 -9.58495 1.28418 -22.9541 -8.23643 1.67962 
-22.4376 -6.9562 2.06682 -21.929 -5.73678 2.37073 -21.4523 -4.61979 2.61617 
-24.0192 -16.7323 -0.407693 -24.1147 -18.3579 -0.743491 -24.0705 -19.9271 -1.16407 
-23.92 -21.3907 -1.69419 -23.6956 -22.7771 -2.31163 -23.4398 -24.0166 -2.97282 
-23.1397 -24.9864 -3.64016 -22.7386 -25.6298 -4.2975 -22.3372 -25.9227 -4.92434 
-24.426 -16.2974 -0.350115 -25.0627 -17.3929 -0.602531 -25.6817 -18.4006 -0.820803 
-26.2546 -19.2501 -1.05897 -26.7475 -19.8641 -1.42289 -27.1676 -20.1869 -1.82529 
-27.5693 -20.2942 -2.13495 -27.9422 -20.3014 -2.44611 -28.2047 -20.1607 -2.85555 
-13.9179 -6.95088 -2.38289 -13.8105 -7.25795 -2.23148 -13.7618 -7.46791 -1.94479 
-13.7475 -7.61973 -1.6095 -13.7248 -7.85204 -1.32038 -13.7212 -8.05662 -0.971708 
-13.8197 -8.04767 -0.548563 -14.0269 -7.91772 -0.195698 -14.2772 -7.83456 0.0687099 
-16.0133 -7.59512 -2.48052 -17.8913 -9.33507 -2.7689 -19.4381 -11.8295 -3.22709 
-20.6514 -14.5844 -3.66238 -21.5542 -17.2315 -4.10874 -22.0778 -19.7305 -4.63819 
-22.2899 -21.9447 -5.09509 -22.3004 -23.6855 -5.35706 -22.1915 -24.97 -5.46768 
-12.1228 -6.42965 -2.62948 -10.3093 -6.40387 -2.79929 -8.72804 -6.20509 -2.77563 
-7.31895 -5.72533 -2.53265 -6.01948 -5.09596 -2.20465 -4.83724 -4.42972 -1.8779 
-3.79107 -3.82243 -1.55938 -2.8869 -3.28693 -1.21313 -2.19693 -2.72263 -0.796533 
-16.2785 -8.68937 0.0623749 -17.7855 -10.1874 -0.399043 -18.962 -12.1848 -1.01922 
-19.9939 -14.3527 -1.58841 -20.9514 -16.5731 -2.07033 -21.6691 -18.9413 -2.65834 
-22.0838 -21.2891 -3.39442 -22.2523 -23.2811 -4.13809 -22.2236 -24.7984 -4.81966 
-12.4184 -7.4003 0.341211 -10.2357 -7.34415 0.438193 -8.33893 -7.40348 0.64813 
-6.77486 -7.23462 0.753197 -5.45072 -6.64933 0.597589 -4.4021 -5.78821 0.352553 
-3.53969 -4.89315 0.168823 -2.73542 -4.01105 0.00186142 -2.11547 -3.07561 -0.172164 
-21.4825 -2.87785 -0.570206 -21.6903 -2.69599 -0.2789 -21.8421 -2.54987 0.100658 
-21.8927 -2.41189 0.653284 -21.8579 -2.31257 1.27484 -21.7613 -2.37577 1.80662 
-21.6013 -2.6247 2.24481 -21.4055 -2.95647 2.57864 -21.2066 -3.30245 2.76112 
-22.4286 -4.10236 -1.01774 -23.5864 -5.3584 -1.26126 -24.6974 -6.84161 -1.58218 
-25.8213 -8.45548 -1.89047 -26.9065 -10.0661 -2.09809 -27.6869 -11.7826 -2.3029 
-28.0724 -13.8723 -2.63026 -28.2507 -16.1934 -2.99106 -28.3414 -18.2437 -3.21472 
-20.2264 -2.01278 -0.503334 -19.1112 -0.937944 -0.105129 -17.9584 0.156342 0.297611 
-16.8219 1.21942 0.617629 -15.6931 2.15292 0.943456 -14.524 2.93437 1.33807 
-13.3867 3.60634 1.65635 -12.3681 4.19212 1.86979 -11.4103 4.68807 2.09429 
-22.0645 -4.6619 2.38879 -23.1957 -5.93973 1.8457 -24.3971 -7.42666 1.22457 
-25.5893 -9.03939 0.613827 -26.6664 -10.7846 0.0912289 -27.5184 -12.718 -0.406191 
-28.022 -14.779 -1.04204 -28.2261 -16.7594 -1.83533 -28.3082 -18.4442 -2.61943 
-20.0555 -2.56 3.21897 -19.0493 -1.45944 3.59532 -18.0393 -0.326005 3.89161 
-16.9687 0.807219 4.03108 -15.7949 1.88089 4.02523 -14.5849 2.85393 3.89088 
-13.3948 3.66333 3.59589 -12.2781 4.27784 3.18898 -11.2982 4.73166 2.7623 
-22.2688 -26.7642 -5.76508 -22.9199 -27.3212 -5.93789 -24.1341 -27.4457 -5.8842 
-25.347 -27.1156 -5.64208 -26.1034 -26.3513 -5.31593 -26.6558 -25.268 -4.93787 
-27.2702 -24.0056 -4.49253 -27.8214 -22.6292 -4.02662 -28.1737 -21.203 -3.62049 
-1.7871 -0.985192 -0.0933311 -2.04433 0.212863 0.152405 -2.55581 1.32658 0.381939 
-3.31624 2.33479 0.629051 -4.25808 3.29119 0.871442 -5.27771 4.11139 1.06412 
-6.45925 4.73775 1.33505 -7.84341 5.14984 1.74232 -9.22938 5.24895 2.11091 
-11.516 -1.06077 -2.54376 -11.4599 -1.71549 -2.76006 -12.871 -1.92168 -2.56141 
-11.4866 -2.46753 -2.9263 -13.0074 -2.62677 -2.73263 -14.6003 -2.94252 -2.5228 
-11.7014 -3.23141 -3.03528 -13.3366 -3.3925 -2.8741 -15.0944 -3.7549 -2.66774 
-16.8166 -4.28456 -2.57665 -12.0988 -4.01874 -3.11156 -13.9037 -4.17173 -2.91234 
-15.8287 -4.69788 -2.77897 -17.5939 -5.36656 -2.75191 -19.0947 -6.10179 -2.87398 
-12.6944 -4.86456 -3.12227 -14.6451 -5.04261 -2.87739 -16.7113 -5.7342 -2.78945 
-18.4553 -6.64387 -2.90206 -19.8096 -7.48403 -3.11351 -20.9119 -8.2359 -3.36445 
-13.5405 -5.66945 -2.98096 -15.5066 -6.02631 -2.85342 -17.5696 -6.86481 -2.83084 
-19.2321 -7.96358 -3.04652 -20.4283 -8.96203 -3.36242 -21.387 -9.74514 -3.65914 
-22.2429 -10.3735 -3.8868 -14.5432 -6.36659 -2.74673 -16.4019 -7.00158 -2.83516 
-18.2919 -8.04521 -2.99081 -19.7837 -9.25086 -3.27778 -20.8499 -10.3526 -3.63712 
-21.7309 -11.2303 -3.94767 -22.529 -11.8799 -4.18739 -23.2377 -12.361 -4.32827 
-9.08752 -0.0394096 -2.58606 -7.80329 0.109122 -2.62946 -8.86989 -0.752221 -2.77233 
-6.6098 0.0619733 -2.52519 -7.60078 -0.752734 -2.73651 -8.80758 -1.62113 -2.85198 
-5.50025 -0.151376 -2.28573 -6.47074 -0.921552 -2.59742 -7.63907 -1.74459 -2.77154 
-8.96104 -2.59934 -2.9261 -4.4725 -0.492363 -2.02934 -5.41834 -1.22055 -2.37494 
-6.56253 -1.98718 -2.66901 -7.87306 -2.82671 -2.86564 -9.24735 -3.63864 -3.11349 
-3.61713 -0.967831 -1.82281 -4.47967 -1.65538 -2.12343 -5.55135 -2.35616 -2.4898 
-6.82467 -3.11572 -2.772 -8.24261 -3.93396 -3.02522 -9.66234 -4.61738 -3.26734 
-2.94242 -1.53676 -1.58718 -3.74253 -2.18582 -1.88022 -4.7252 -2.84381 -2.22177 
-5.90619 -3.53373 -2.56551 -7.31109 -4.24853 -2.83632 -8.79558 -4.93603 -3.07907 
-10.2945 -5.3952 -3.17508 -2.44344 -2.13622 -1.2362 -3.20479 -2.73621 -1.59296 
-4.14809 -3.3423 -1.91013 -5.24846 -4.01293 -2.24673 -6.547 -4.67903 -2.56027 
-7.9989 -5.29832 -2.82587 -9.49877 -5.76302 -2.97652 -11.1346 -5.97042 -2.9016 
-2.64704 -3.70481 -0.637814 -3.37784 -4.67615 -0.472005 -3.47226 -4.2635 -1.07245 
-4.19937 -5.63575 -0.31525 -4.25541 -5.27745 -0.930996 -4.48863 -4.81332 -1.44605 
-5.11755 -6.578 -0.0904816 -5.10793 -6.31179 -0.771115 -5.33884 -5.86246 -1.32815 
-5.64938 -5.44794 -1.79042 -6.30517 -7.36055 0.180808 -6.10592 -7.30575 -0.542859 
-6.24227 -6.96511 -1.2127 -6.54141 -6.52446 -1.72931 -6.88544 -6.14185 -2.17059 
[...]
POINT_DATA 1002
FIELD FieldData 4
_paraPhi 1 1002 double
6.2831853072 3.1415926536 6.2831853072 3.1415926536 4.7123889804 4.7123889804 1.5707963268 1.5707963268 3.6951670125 
5.7296109483 2.5880182947 0.5535743589 6.2831853072 6.2831853072 6.2831853072 6.2831853072 3.1415926536 3.1415926536 
3.1415926536 3.1415926536 3.1415926536 6.1053039672 5.898798347 5.6768734901 5.4599499503 5.2659633393 5.1032165617 
4.9713148346 4.8656852733 4.7809517865 0.17788134 0.38438696014 0.60631181711 0.82323535693 1.0172219679 1.1799687454 
1.3118704726 1.4175000338 1.5022335207 6.1892828907 6.1070320098 6.035312792 5.9728339911 5.9183214791 5.8706119594 
5.8286879411 5.7916808611 5.7588591896 0.093902416448 0.17615329733 0.2478725152 0.31035131605 0.36486382811 0.41257334776 
0.45449736604 0.4915044461 0.52432611754 3.3194739936 3.5259796137 3.7479044707 3.9648280105 4.1588146215 4.321561399 
4.4534631262 4.5590926874 4.6438261743 2.9637113136 2.7572056934 2.5352808365 2.3183572967 2.1243706857 1.9616239082 
1.829722181 1.7240926197 1.6393591329 3.23549507 3.3177459509 3.3894651688 3.4519439696 3.5064564817 3.5541660013 
3.5960900196 3.6330970997 3.6659187711 3.0476902371 2.9654393563 2.8937201384 2.8312413375 2.7767288255 2.7290193058 
2.6870952876 2.6500882075 2.617266536 6.2831853072 6.2831853072 6.2831853072 6.2831853072 3.1415926536 3.1415926536 
3.1415926536 3.1415926536 3.1415926536 6.1053039672 5.898798347 5.6768734901 5.4599499503 5.2659633393 5.1032165617 
4.9713148346 4.8656852733 4.7809517865 0.17788134 0.38438696014 0.60631181711 0.82323535693 1.0172219679 1.1799687454 
1.3118704726 1.4175000338 1.5022335207 6.1892828907 6.1070320098 6.035312792 5.9728339911 5.9183214791 5.8706119594 
5.8286879411 5.7916808611 5.7588591896 0.093902416448 0.17615329733 0.2478725152 0.31035131605 0.36486382811 0.41257334776 
0.45449736604 0.4915044461 0.52432611754 3.3194739936 3.5259796137 3.7479044707 3.9648280105 4.1588146215 4.321561399 
4.4534631262 4.5590926874 4.6438261743 2.9637113136 2.7572056934 2.5352808365 2.3183572967 2.1243706857 1.9616239082 
1.829722181 1.7240926197 1.6393591329 3.23549507 3.3177459509 3.3894651688 3.4519439696 3.5064564817 3.5541660013 
3.5960900196 3.6330970997 3.6659187711 3.0476902371 2.9654393563 2.8937201384 2.8312413375 2.7767288255 2.7290193058 
2.6870952876 2.6500882075 2.617266536 4.7123889804 4.7123889804 4.7123889804 4.7123889804 4.7123889804 4.7123889804 
4.7123889804 4.7123889804 4.7123889804 4.6087898617 4.4991390697 4.3857031936 4.2712800401 4.1588146215 4.0509635631 
3.94975894 3.8564636551 3.7716124825 4.8159880991 4.9256388911 5.0390747672 5.1534979207 5.2659633393 5.3738143976 
5.4750190208 5.5683143056 5.6531654782 4.6087898617 4.4991390697 4.3857031936 4.2712800401 4.1588146215 4.0509635631 
3.94975894 3.8564636551 3.7716124825 4.8159880991 4.9256388911 5.0390747672 5.1534979207 5.2659633393 5.3738143976 
5.4750190208 5.5683143056 5.6531654782 1.5707963268 1.5707963268 1.5707963268 1.5707963268 1.5707963268 1.5707963268 
1.5707963268 1.5707963268 1.5707963268 1.6743954455 1.7840462375 1.8974821136 2.0119052671 2.1243706857 2.232221744 
2.3334263672 2.426721652 2.5115728246 1.4671972081 1.3575464161 1.24411054 1.1296873865 1.0172219679 0.90937090954 
0.80816628637 0.71487100155 0.63001982895 1.6743954455 1.7840462375 1.8974821136 2.0119052671 2.1243706857 2.232221744 
2.3334263672 2.426721652 2.5115728246 1.4671972081 1.3575464161 1.24411054 1.1296873865 1.0172219679 0.90937090954 
0.80816628637 0.71487100155 0.63001982895 3.6007720849 3.4966939854 3.3839471039 3.2645756454 3.1415926536 3.0186096618 
2.8992382033 2.7864913217 2.6824132222 5.8240058758 5.9280839753 6.0408308569 6.1602023154 6.2831853072 0.12298299178 
0.2423544503 0.35510133185 0.45917943135 6.0560271438 5.7885595667 5.9702140275 5.5125918794 5.6029703303 5.7885595667 
5.2659633393 5.2659633393 5.2659633393 5.2659633393 5.0674903122 5.0120975802 4.9155579264 4.7123889804 4.1588146215 
4.9155579264 4.8353719722 4.7123889804 4.5092200343 4.1588146215 3.6362183941 4.8004512023 4.7123889804 4.5894059886 
4.4126803806 4.1588146215 3.8218076305 3.4545639333 4.7123889804 4.6243267584 4.5092200343 4.3572876485 4.1588146215 
3.9121860814 3.6362183941 3.368750817 6.0174235957 5.9434319871 5.8263323547 5.8809213739 5.7674481418 5.6279784266 
5.8278025282 5.718968232 5.5891129425 5.4372443565 5.7823484065 5.678536687 5.5575666702 5.4192596322 5.2659633393 
5.743164462 5.6444075337 5.5314983644 5.4046708639 5.2659633393 5.1195510325 5.7091357773 5.6152775188 5.5096229709 
5.3926039573 5.2659633393 5.1329233157 4.9978930058 5.6793730533 5.5901633916 5.4910209005 5.3824597928 5.2659633393 
5.1440684722 5.0201624502 4.8979782167 5.5683143056 5.4750190208 5.4750190208 5.3738143976 5.3738143976 5.3738143976 
5.2659633393 5.2659633393 5.2659633393 5.2659633393 5.1534979207 5.1534979207 5.1534979207 5.1534979207 5.1534979207 
5.0390747672 5.0390747672 5.0390747672 5.0390747672 5.0390747672 5.0390747672 4.9256388911 4.9256388911 4.9256388911 
4.9256388911 4.9256388911 4.9256388911 4.9256388911 4.8159880991 4.8159880991 4.8159880991 4.8159880991 4.8159880991 
4.8159880991 4.8159880991 4.8159880991 4.6087898617 4.6087898617 4.4991390697 4.6087898617 4.4991390697 4.3857031936 
4.6087898617 4.4991390697 4.3857031936 4.2712800401 4.6087898617 4.4991390697 4.3857031936 4.2712800401 4.1588146215 
4.6087898617 4.4991390697 4.3857031936 4.2712800401 4.1588146215 4.0509635631 4.6087898617 4.4991390697 4.3857031936 
4.2712800401 4.1588146215 4.0509635631 3.94975894 4.6087898617 4.4991390697 4.3857031936 4.2712800401 4.1588146215 
4.0509635631 3.94975894 3.8564636551 4.526799744 4.4046155105 4.426884955 4.2807094886 4.2918546451 4.3052269283 
4.1588146215 4.1588146215 4.1588146215 4.1588146215 4.042318168 4.0321740035 4.0201070968 4.0055183285 3.9875336042 
3.9337570603 3.9151549899 3.8932795963 3.8672112905 3.8356650183 3.7967995342 3.8346145692 3.809500442 3.7803704271 
3.7462412737 3.7058097288 3.657329819 3.5984456061 3.7454049075 3.7156421835 3.6816134988 3.6424295543 3.5969754326 
3.5438565869 3.4813459737 3.4073543651 3.5642842451 3.4524645613 3.5233842518 3.3320300872 3.403123212 3.4773852225 
3.20576226 3.2746326772 3.348015857 3.4255060145 3.0774230472 3.1415926536 3.2112816139 3.2864685043 3.3668817272 
2.95115522 3.00855263 3.0719036933 3.1415926536 3.2178377658 3.3005964304 2.8307207459 2.8800620952 2.9351694502 
2.9967168029 3.0653475414 3.1415926536 3.225752376 2.718901062 2.7598010554 2.8058000847 2.8576792927 2.91630358 
2.9825888767 3.0574329311 3.1415926536 3.5642842451 3.5233842518 3.4524645613 3.4773852225 3.403123212 3.3320300872 
3.4255060145 3.348015857 3.2746326772 3.20576226 3.3668817272 3.2864685043 3.2112816139 3.1415926536 3.0774230472 
3.3005964304 3.2178377658 3.1415926536 3.0719036933 3.00855263 2.95115522 3.225752376 3.1415926536 3.0653475414 
2.9967168029 2.9351694502 2.8800620952 2.8307207459 3.1415926536 3.0574329311 2.9825888767 2.91630358 2.8576792927 
2.8058000847 2.7598010554 2.718901062 4.526799744 4.426884955 4.4046155105 4.3052269283 4.2918546451 4.2807094886 
4.1588146215 4.1588146215 4.1588146215 4.1588146215 3.9875336042 4.0055183285 4.0201070968 4.0321740035 4.042318168 
3.7967995342 3.8356650183 3.8672112905 3.8932795963 3.9151549899 3.9337570603 3.5984456061 3.657329819 3.7058097288 
3.7462412737 3.7803704271 3.809500442 3.8346145692 3.4073543651 3.4813459737 3.5438565869 3.5969754326 3.6424295543 
3.6816134988 3.7156421835 3.7454049075 4.7123889804 4.8004512023 4.6243267584 4.9155579264 4.7123889804 4.5092200343 
5.0674903122 4.8353719722 4.5894059886 4.3572876485 5.2659633393 5.0120975802 4.7123889804 4.4126803806 4.1588146215 
5.5125918794 5.2659633393 4.9155579264 4.5092200343 4.1588146215 3.9121860814 5.7885595667 5.6029703303 5.2659633393 
4.7123889804 4.1588146215 3.8218076305 3.6362183941 6.0560271438 5.9702140275 5.7885595667 5.2659633393 4.1588146215 
3.6362183941 3.4545639333 3.368750817 0.22715816343 0.49462574053 0.3129712797 0.77059342779 0.68021497688 0.49462574053 
1.0172219679 1.0172219679 1.0172219679 1.0172219679 1.2156949949 1.271087727 1.3676273807 1.5707963268 2.1243706857 
1.3676273807 1.447813335 1.5707963268 1.7739652728 2.1243706857 2.6469669131 1.4827341049 1.5707963268 1.6937793186 
1.8705049266 2.1243706857 2.4613776767 2.8286213739 1.5707963268 1.6588585487 1.7739652728 1.9258976586 2.1243706857 
2.3709992258 2.6469669131 2.9144344902 1.7563855631 1.8785697967 1.8563003522 2.0024758186 1.9913306621 1.9779583789 
2.1243706857 2.1243706857 2.1243706857 2.1243706857 2.2408671392 2.2510113037 2.2630782103 2.2776669786 2.295651703 
2.3494282469 2.3680303173 2.3899057108 2.4159740166 2.4475202889 2.486385773 2.448570738 2.4736848652 2.5028148801 
2.5369440334 2.5773755784 2.6258554882 2.6847397011 2.5377803997 2.5675431237 2.6015718084 2.6407557529 2.6862098746 
2.7393287203 2.8018393335 2.8758309421 1.6743954455 1.6743954455 1.7840462375 1.6743954455 1.7840462375 1.8974821136 
1.6743954455 1.7840462375 1.8974821136 2.0119052671 1.6743954455 1.7840462375 1.8974821136 2.0119052671 2.1243706857 
1.6743954455 1.7840462375 1.8974821136 2.0119052671 2.1243706857 2.232221744 1.6743954455 1.7840462375 1.8974821136 
2.0119052671 2.1243706857 2.232221744 2.3334263672 1.6743954455 1.7840462375 1.8974821136 2.0119052671 2.1243706857 
2.232221744 2.3334263672 2.426721652 1.4671972081 1.3575464161 1.4671972081 1.24411054 1.3575464161 1.4671972081 
1.1296873865 1.24411054 1.3575464161 1.4671972081 1.0172219679 1.1296873865 1.24411054 1.3575464161 1.4671972081 
0.90937090954 1.0172219679 1.1296873865 1.24411054 1.3575464161 1.4671972081 0.80816628637 0.90937090954 1.0172219679 
1.1296873865 1.24411054 1.3575464161 1.4671972081 0.71487100155 0.80816628637 0.90937090954 1.0172219679 1.1296873865 
1.24411054 1.3575464161 1.4671972081 0.60381225391 0.57404952988 0.69302191562 0.54002084522 0.66790778838 0.79216440667 
0.50083690068 0.63877777351 0.77356233629 0.90072551443 0.45538277901 0.60464862014 0.75168694275 0.89058134991 1.0172219679 
0.40226393329 0.56421707518 0.72561863695 0.87851444325 1.0172219679 1.139116835 0.33975332011 0.51573716537 0.69407236469 
0.86392567495 1.0172219679 1.1502619915 1.2630228569 0.26576171152 0.45685295248 0.6552068806 0.84594095064 1.0172219679 
1.1636342747 1.2852923014 1.3852070904 0.22715816343 0.3129712797 0.49462574053 0.49462574053 0.68021497688 0.77059342779 
1.0172219679 1.0172219679 1.0172219679 1.0172219679 2.1243706857 1.5707963268 1.3676273807 1.271087727 1.2156949949 
2.6469669131 2.1243706857 1.7739652728 1.5707963268 1.447813335 1.3676273807 2.8286213739 2.4613776767 2.1243706857 
1.8705049266 1.6937793186 1.5707963268 1.4827341049 2.9144344902 2.6469669131 2.3709992258 2.1243706857 1.9258976586 
1.7739652728 1.6588585487 1.5707963268 1.7563855631 1.8563003522 1.8785697967 1.9779583789 1.9913306621 2.0024758186 
2.1243706857 2.1243706857 2.1243706857 2.1243706857 2.295651703 2.2776669786 2.2630782103 2.2510113037 2.2408671392 
2.486385773 2.4475202889 2.4159740166 2.3899057108 2.3680303173 2.3494282469 2.6847397011 2.6258554882 2.5773755784 
2.5369440334 2.5028148801 2.4736848652 2.448570738 2.8758309421 2.8018393335 2.7393287203 2.6862098746 2.6407557529 
2.6015718084 2.5675431237 2.5377803997 5.8604937156 5.901393709 5.9723133995 5.9473927383 6.0216547488 6.0927478736 
5.9992719463 6.0767621038 6.1501452836 6.2190157008 6.0578962336 6.1383094565 6.2134963469 0 0.064169606361 
6.1241815303 6.206940195 6.2831853072 0.069688960264 0.13304002361 0.19043743361 6.1990255847 0 0.07624511221 
0.14487585072 0.20642320337 0.26153055843 0.3108719077 0 0.084159722458 0.15900377685 0.22528907359 0.28391336087 
0.3357925689 0.38179159818 0.42269159155 5.8604937156 5.9723133995 5.901393709 6.0927478736 6.0216547488 5.9473927383 
6.2190157008 6.1501452836 6.0767621038 5.9992719463 0.064169606361 0 6.2134963469 6.1383094565 6.0578962336 
0.19043743361 0.13304002361 0.069688960264 6.2831853072 6.206940195 6.1241815303 0.3108719077 0.26153055843 0.20642320337 
0.14487585072 0.07624511221 6.2831853072 6.1990255847 0.42269159155 0.38179159818 0.3357925689 0.28391336087 0.22528907359 
0.15900377685 0.084159722458 0 5.6793730533 5.7091357773 5.5901633916 5.743164462 5.6152775188 5.4910209005 
5.7823484065 5.6444075337 5.5096229709 5.3824597928 5.8278025282 5.678536687 5.5314983644 5.3926039573 5.2659633393 
5.8809213739 5.718968232 5.5575666702 5.4046708639 5.2659633393 5.1440684722 5.9434319871 5.7674481418 5.5891129425 
5.4192596322 5.2659633393 5.1329233157 5.0201624502 6.0174235957 5.8263323547 5.6279784266 5.4372443565 5.2659633393 
5.1195510325 4.9978930058 4.8979782167 1.3852070904 1.2852923014 1.2630228569 1.1636342747 1.1502619915 1.139116835 
1.0172219679 1.0172219679 1.0172219679 1.0172219679 0.84594095064 0.86392567495 0.87851444325 0.89058134991 0.90072551443 
0.6552068806 0.69407236469 0.72561863695 0.75168694275 0.77356233629 0.79216440667 0.45685295248 0.51573716537 0.56421707518 
0.60464862014 0.63877777351 0.66790778838 0.69302191562 0.26576171152 0.33975332011 0.40226393329 0.45538277901 0.50083690068 
0.54002084522 0.57404952988 0.60381225391 
_paraPhiHalf 1 1002 double
0 3.1415926536 0 3.1415926536 1.5707963268 1.5707963268 1.5707963268 1.5707963268 2.5880182947 
0.5535743589 2.5880182947 0.5535743589 0 0 0 0 3.1415926536 3.1415926536 
3.1415926536 3.1415926536 3.1415926536 0.17788134 0.38438696014 0.60631181711 0.82323535693 1.0172219679 1.1799687454 
1.3118704726 1.4175000338 1.5022335207 0.17788134 0.38438696014 0.60631181711 0.82323535693 1.0172219679 1.1799687454 
1.3118704726 1.4175000338 1.5022335207 0.093902416448 0.17615329733 0.2478725152 0.31035131605 0.36486382811 0.41257334776 
0.45449736604 0.4915044461 0.52432611754 0.093902416448 0.17615329733 0.2478725152 0.31035131605 0.36486382811 0.41257334776 
0.45449736604 0.4915044461 0.52432611754 2.9637113136 2.7572056934 2.5352808365 2.3183572967 2.1243706857 1.9616239082 
1.829722181 1.7240926197 1.6393591329 2.9637113136 2.7572056934 2.5352808365 2.3183572967 2.1243706857 1.9616239082 
1.829722181 1.7240926197 1.6393591329 3.0476902371 2.9654393563 2.8937201384 2.8312413375 2.7767288255 2.7290193058 
2.6870952876 2.6500882075 2.617266536 3.0476902371 2.9654393563 2.8937201384 2.8312413375 2.7767288255 2.7290193058 
2.6870952876 2.6500882075 2.617266536 0 0 0 0 3.1415926536 3.1415926536 
3.1415926536 3.1415926536 3.1415926536 0.17788134 0.38438696014 0.60631181711 0.82323535693 1.0172219679 1.1799687454 
1.3118704726 1.4175000338 1.5022335207 0.17788134 0.38438696014 0.60631181711 0.82323535693 1.0172219679 1.1799687454 
1.3118704726 1.4175000338 1.5022335207 0.093902416448 0.17615329733 0.2478725152 0.31035131605 0.36486382811 0.41257334776 
0.45449736604 0.4915044461 0.52432611754 0.093902416448 0.17615329733 0.2478725152 0.31035131605 0.36486382811 0.41257334776 
0.45449736604 0.4915044461 0.52432611754 2.9637113136 2.7572056934 2.5352808365 2.3183572967 2.1243706857 1.9616239082 
1.829722181 1.7240926197 1.6393591329 2.9637113136 2.7572056934 2.5352808365 2.3183572967 2.1243706857 1.9616239082 
1.829722181 1.7240926197 1.6393591329 3.0476902371 2.9654393563 2.8937201384 2.8312413375 2.7767288255 2.7290193058 
2.6870952876 2.6500882075 2.617266536 3.0476902371 2.9654393563 2.8937201384 2.8312413375 2.7767288255 2.7290193058 
2.6870952876 2.6500882075 2.617266536 1.5707963268 1.5707963268 1.5707963268 1.5707963268 1.5707963268 1.5707963268 
1.5707963268 1.5707963268 1.5707963268 1.6743954455 1.7840462375 1.8974821136 2.0119052671 2.1243706857 2.232221744 
2.3334263672 2.426721652 2.5115728246 1.4671972081 1.3575464161 1.24411054 1.1296873865 1.0172219679 0.90937090954 
0.80816628637 0.71487100155 0.63001982895 1.6743954455 1.7840462375 1.8974821136 2.0119052671 2.1243706857 2.232221744 
2.3334263672 2.426721652 2.5115728246 1.4671972081 1.3575464161 1.24411054 1.1296873865 1.0172219679 0.90937090954 
0.80816628637 0.71487100155 0.63001982895 1.5707963268 1.5707963268 1.5707963268 1.5707963268 1.5707963268 1.5707963268 
1.5707963268 1.5707963268 1.5707963268 1.6743954455 1.7840462375 1.8974821136 2.0119052671 2.1243706857 2.232221744 
2.3334263672 2.426721652 2.5115728246 1.4671972081 1.3575464161 1.24411054 1.1296873865 1.0172219679 0.90937090954 
0.80816628637 0.71487100155 0.63001982895 1.6743954455 1.7840462375 1.8974821136 2.0119052671 2.1243706857 2.232221744 
2.3334263672 2.426721652 2.5115728246 1.4671972081 1.3575464161 1.24411054 1.1296873865 1.0172219679 0.90937090954 
0.80816628637 0.71487100155 0.63001982895 2.6824132222 2.7864913217 2.8992382033 3.0186096618 3.1415926536 3.0186096618 
2.8992382033 2.7864913217 2.6824132222 0.45917943135 0.35510133185 0.2423544503 0.12298299178 0 0.12298299178 
0.2423544503 0.35510133185 0.45917943135 0.22715816343 0.49462574053 0.3129712797 0.77059342779 0.68021497688 0.49462574053 
1.0172219679 1.0172219679 1.0172219679 1.0172219679 1.2156949949 1.271087727 1.3676273807 1.5707963268 2.1243706857 
1.3676273807 1.447813335 1.5707963268 1.7739652728 2.1243706857 2.6469669131 1.4827341049 1.5707963268 1.6937793186 
1.8705049266 2.1243706857 2.4613776767 2.8286213739 1.5707963268 1.6588585487 1.7739652728 1.9258976586 2.1243706857 
2.3709992258 2.6469669131 2.9144344902 0.26576171152 0.33975332011 0.45685295248 0.40226393329 0.51573716537 0.6552068806 
0.45538277901 0.56421707518 0.69407236469 0.84594095064 0.50083690068 0.60464862014 0.72561863695 0.86392567495 1.0172219679 
0.54002084522 0.63877777351 0.75168694275 0.87851444325 1.0172219679 1.1636342747 0.57404952988 0.66790778838 0.77356233629 
0.89058134991 1.0172219679 1.1502619915 1.2852923014 0.60381225391 0.69302191562 0.79216440667 0.90072551443 1.0172219679 
1.139116835 1.2630228569 1.3852070904 0.71487100155 0.80816628637 0.80816628637 0.90937090954 0.90937090954 0.90937090954 
1.0172219679 1.0172219679 1.0172219679 1.0172219679 1.1296873865 1.1296873865 1.1296873865 1.1296873865 1.1296873865 
1.24411054 1.24411054 1.24411054 1.24411054 1.24411054 1.24411054 1.3575464161 1.3575464161 1.3575464161 
1.3575464161 1.3575464161 1.3575464161 1.3575464161 1.4671972081 1.4671972081 1.4671972081 1.4671972081 1.4671972081 
1.4671972081 1.4671972081 1.4671972081 1.6743954455 1.6743954455 1.7840462375 1.6743954455 1.7840462375 1.8974821136 
1.6743954455 1.7840462375 1.8974821136 2.0119052671 1.6743954455 1.7840462375 1.8974821136 2.0119052671 2.1243706857 
1.6743954455 1.7840462375 1.8974821136 2.0119052671 2.1243706857 2.232221744 1.6743954455 1.7840462375 1.8974821136 
2.0119052671 2.1243706857 2.232221744 2.3334263672 1.6743954455 1.7840462375 1.8974821136 2.0119052671 2.1243706857 
2.232221744 2.3334263672 2.426721652 1.7563855631 1.8785697967 1.8563003522 2.0024758186 1.9913306621 1.9779583789 
2.1243706857 2.1243706857 2.1243706857 2.1243706857 2.2408671392 2.2510113037 2.2630782103 2.2776669786 2.295651703 
2.3494282469 2.3680303173 2.3899057108 2.4159740166 2.4475202889 2.486385773 2.448570738 2.4736848652 2.5028148801 
2.5369440334 2.5773755784 2.6258554882 2.6847397011 2.5377803997 2.5675431237 2.6015718084 2.6407557529 2.6862098746 
2.7393287203 2.8018393335 2.8758309421 2.718901062 2.8307207459 2.7598010554 2.95115522 2.8800620952 2.8058000847 
3.0774230472 3.00855263 2.9351694502 2.8576792927 3.0774230472 3.1415926536 3.0719036933 2.9967168029 2.91630358 
2.95115522 3.00855263 3.0719036933 3.1415926536 3.0653475414 2.9825888767 2.8307207459 2.8800620952 2.9351694502 
2.9967168029 3.0653475414 3.1415926536 3.0574329311 2.718901062 2.7598010554 2.8058000847 2.8576792927 2.91630358 
2.9825888767 3.0574329311 3.1415926536 2.718901062 2.7598010554 2.8307207459 2.8058000847 2.8800620952 2.95115522 
2.8576792927 2.9351694502 3.00855263 3.0774230472 2.91630358 2.9967168029 3.0719036933 3.1415926536 3.0774230472 
2.9825888767 3.0653475414 3.1415926536 3.0719036933 3.00855263 2.95115522 3.0574329311 3.1415926536 3.0653475414 