# vtk DataFile Version 5.1
vtk output
ASCII
DATASET POLYDATA
POINTS 100 float
-4.50146 4.43033 1.68215 -4.4998 4.42643 1.67696 -4.49675 4.41291 1.66591 
-4.49549 4.38903 1.65018 -4.50066 4.35367 1.63149 -4.51748 4.30541 1.61182 
-4.55075 4.2427 1.59315 -4.604 4.16405 1.57711 -4.67887 4.0682 1.56482 
-4.77488 3.95429 1.55675 -4.88958 3.82198 1.55273 -5.01912 3.67156 1.55205 
-5.15903 3.50391 1.55367 -5.30512 3.32045 1.55641 -5.45423 3.12302 1.55917 
-5.60487 2.91366 1.56101 -5.75731 2.69441 1.56133 -5.91351 2.46714 1.55973 
-6.07659 2.23338 1.55604 -6.25012 1.99422 1.55018 -6.43737 1.75035 1.54203 
-6.64065 1.5021 1.53139 -6.86086 1.24956 1.51796 -7.09736 0.992805 1.50136 
-7.34817 0.731967 1.48126 -7.61043 0.4674 1.45747 -7.88099 0.199692 1.43004 
-8.15704 -0.0703769 1.39933 -8.43664 -0.341955 1.36596 -8.71895 -0.614287 1.3308 
-9.00433 -0.886886 1.29476 -9.29401 -1.15967 1.25867 -9.58975 -1.43304 1.22307 
-9.89329 -1.70781 1.18811 -10.2059 -1.98506 1.15352 -10.5282 -2.26594 1.11865 
-10.8599 -2.55135 1.08258 -11.2001 -2.84173 1.04435 -11.5476 -3.13687 1.00313 
-11.9016 -3.43587 0.958428 -12.2617 -3.7373 0.910172 -12.6287 -4.03949 0.858702 
-13.0043 -4.34093 0.80465 -13.391 -4.64078 0.748721 -13.7918 -4.93934 0.691423 
-14.2091 -5.23836 0.632796 -14.6444 -5.54121 0.5722 -15.0973 -5.85273 0.508219 
-15.5654 -6.17891 0.438706 -16.0437 -6.52627 0.360982 -16.5254 -6.90109 0.272146 
-17.002 -7.30868 0.169471 -17.4643 -7.75264 0.0508002 -17.9035 -8.23437 -0.0851201 
-18.312 -8.75286 -0.238425 -18.6843 -9.30477 -0.408075 -19.0172 -9.88489 -0.591971 
-19.3103 -10.4868 -0.787204 -19.5654 -11.1035 -0.990411 -19.7863 -11.7288 -1.19816 
-19.9776 -12.3571 -1.4073 -20.1444 -12.9849 -1.61522 -20.2914 -13.6103 -1.82 
-20.422 -14.233 -2.02039 -20.5384 -14.8541 -2.21573 -20.6416 -15.4756 -2.4057 
-20.7309 -16.0991 -2.59017 -20.8052 -16.7258 -2.76897 -20.8626 -17.356 -2.94179 
-20.9014 -17.9883 -3.10811 -20.9202 -18.6201 -3.2673 -20.9183 -19.2478 -3.41871 
-20.8958 -19.8672 -3.56186 -20.8537 -20.4741 -3.6965 -20.7939 -21.0648 -3.82276 
-20.7189 -21.6367 -3.9411 -20.6316 -22.1887 -4.05226 -20.5358 -22.7206 -4.15708 
-20.4351 -23.2336 -4.25638 -20.3336 -23.7297 -4.35075 -20.2354 -24.2108 -4.44045 
-20.1442 -24.6785 -4.52541 -20.0636 -25.1334 -4.60526 -19.9962 -25.575 -4.67949 
-19.944 -26.0012 -4.74763 -19.908 -26.4086 -4.80945 -19.8878 -26.7929 -4.86506 
-19.8822 -27.1494 -4.91504 -19.8888 -27.4734 -4.96033 -19.9046 -27.761 -5.00211 
-19.9262 -28.0095 -5.04158 -19.9504 -28.2179 -5.07971 -19.9742 -28.3869 -5.11699 
-19.9955 -28.519 -5.1533 -20.0129 -28.6182 -5.18787 -20.026 -28.6893 -5.21934 
-20.0349 -28.7374 -5.24599 -20.0403 -28.7675 -5.26603 -20.0429 -28.7836 -5.27789 
-20.0434 -28.7885 -5.28052 
LINES 2 100
OFFSETS vtktypeint64
0 100 
CONNECTIVITY vtktypeint64
0 1 2 3 4 5 6 7 8 
9 10 11 12 13 14 15 16 17 
18 19 20 21 22 23 24 25 26 
27 28 29 30 31 32 33 34 35 
36 37 38 39 40 41 42 43 44 
45 46 47 48 49 50 51 52 53 
54 55 56 57 58 59 60 61 62 
63 64 65 66 67 68 69 70 71 
72 73 74 75 76 77 78 79 80 
81 82 83 84 85 86 87 88 89 
90 91 92 93 94 95 96 97 98 
99 
POINT_DATA 100
FIELD FieldData 3
_theta 1 100 double
0 0.031733259127 0.063466518254 0.095199777382 0.12693303651 0.15866629564 0.19039955476 0.22213281389 0.25386607302 
0.28559933214 0.31733259127 0.3490658504 0.38079910953 0.41253236865 0.44426562778 0.47599888691 0.50773214603 0.53946540516 
0.57119866429 0.60293192342 0.63466518254 0.66639844167 0.6981317008 0.72986495992 0.76159821905 0.79333147818 0.82506473731 
0.85679799643 0.88853125556 0.92026451469 0.95199777382 0.98373103294 1.0154642921 1.0471975512 1.0789308103 1.1106640695 
1.1423973286 1.1741305877 1.2058638468 1.237597106 1.2693303651 1.3010636242 1.3327968833 1.3645301425 1.3962634016 
1.4279966607 1.4597299198 1.491463179 1.5231964381 1.5549296972 1.5866629564 1.6183962155 1.6501294746 1.6818627337 
1.7135959929 1.745329252 1.7770625111 1.8087957702 1.8405290294 1.8722622885 1.9039955476 1.9357288068 1.9674620659 
1.999195325 2.0309285841 2.0626618433 2.0943951024 2.1261283615 2.1578616206 2.1895948798 2.2213281389 2.253061398 
2.2847946572 2.3165279163 2.3482611754 2.3799944345 2.4117276937 2.4434609528 2.4751942119 2.506927471 2.5386607302 
2.5703939893 2.6021272484 2.6338605076 2.6655937667 2.6973270258 2.7290602849 2.7607935441 2.7925268032 2.8242600623 
2.8559933214 2.8877265806 2.9194598397 2.9511930988 2.982926358 3.0146596171 3.0463928762 3.0781261353 3.1098593945 
3.1415926536 
_radius 1 100 double
1.1967771643e-14 0.29384961953 0.58668840085 0.87743054141 1.1649473907 1.448056282 1.7255336473 1.9961680719 2.2588562461 
2.5127227945 2.757223808 2.9921857435 3.2177441148 3.4341788441 3.641684026 3.8401419688 4.0289791845 4.2071600953 
4.3733313971 4.5260845756 4.6642726005 4.7873061492 4.8953625303 4.9894608069 5.0713836946 5.1434558878 5.2082152643 
5.2680336449 5.3247537035 5.3794062298 5.4320577278 5.4818147588 5.5269821509 5.5653421197 5.5944969582 5.6122058248 
5.6166500261 5.6065800291 5.5813264052 5.5406897209 5.484754635 5.4136945356 5.3276387273 5.2266611711 5.1109196956 
4.9809329272 4.837936313 4.684218923 4.5233254698 4.3600310457 4.2000619756 4.0496155963 3.9147785039 3.8009372645 
3.7122403007 3.6511418249 3.6180653579 3.6112630935 3.626968211 3.6598793278 3.7038956166 3.7529358757 3.8016793499 
3.8461183052 3.883861848 3.9141691332 3.9377259155 3.9562126399 3.9717405535 3.9862507013 4.0009783872 4.0160839535 
4.0305368698 4.0423018986 4.0488006082 4.0475214063 4.0365771699 4.0150158757 3.982783478 3.9403716133 3.8882905087 
3.8265478397 3.7542851545 3.6696554274 3.5699567537 3.4519895131 3.3125757875 3.1491583203 2.9603746859 2.7464857934 
2.5095419467 2.2532100871 1.9822646543 1.7018428236 1.4166472691 1.1303076577 0.84506203121 0.56180007864 0.28037342265 
6.2027844127e-14 
_area 1 100 double
0 0.24963930141 0.99439146716 2.2213553393 3.907975243 6.0213334118 8.5184823391 11.348451374 14.456194119 
17.788218787 21.298879599 24.955385637 28.739012228 32.640585269 36.6504866 40.746406991 44.883864066 48.993621755 
52.987295357 56.769606082 60.254106455 63.378606465 66.116655646 68.482281963 70.526772681 72.32827633 73.976778819 
75.55793704 77.139032802 78.759131807 80.424039351 82.105590838 83.744645282 85.257650949 86.546825193 87.51293509 
88.06808212 88.145470252 87.704301002 86.729645431 85.228425002 83.22339006 80.747519749 77.841459215 74.55574381 
70.957229917 67.136231298 63.209212933 59.313063602 55.590923636 52.174009827 49.165355667 46.629141808 44.588130745 
43.03237513 41.933710409 41.252473453 40.935595456 40.915940347 41.116731917 41.459365493 41.872526634 42.299632398 
42.700803179 43.048285749 43.319998558 43.49909648 43.582888504 43.595167855 43.590899816 43.643800926 43.813466497 
44.102563372 44.43308736 44.666666353 44.658462264 44.309969366 43.595448239 42.557292551 41.278923106 39.84867572 
38.328235849 36.736192473 35.05014138 33.221516047 31.193817357 28.918884673 26.370391409 23.554805282 20.518602364 
17.348794882 14.164062228 11.097004738 8.2726615652 5.7909763507 3.7190203005 2.0935963491 0.9301134916 0.23238811748 
8.8619856022e-14 
