# vtk DataFile Version 5.1
vtk output
ASCII
DATASET POLYDATA
POINTS 1002 float
-10.2389 -0.142003 -2.49765 -21.3729 -17.0726 -3.37345 -8.09471 -2.30969 3.74179 
-20.1974 -17.5327 1.1651 -11.5719 -7.53041 -2.94437 -12.1994 -8.48643 0.578188 
-19.8009 -5.0185 -0.385338 -19.9799 -5.81174 3.41535 -17.4215 -29.4004 -2.7013 
-0.752202 -0.762528 -0.271954 -24.453 -23.0646 -1.21302 -10.3656 5.18415 1.87492 
-11.1519 -0.874887 -2.64491 -12.1911 -1.82023 -2.69248 -13.312 -2.99661 -2.59567 
-14.6334 -4.39317 -2.44321 -16.2708 -6.10272 -2.42477 -17.9645 -8.21417 -2.6049 
-19.3221 -10.5761 -2.86094 -20.2666 -12.9244 -3.08032 -20.9202 -15.1093 -3.24269 
-9.90319 -0.561901 -2.72366 -9.59962 -1.11459 -2.95135 -9.38118 -1.8359 -3.15666 
-9.27428 -2.6462 -3.34117 -9.30434 -3.51771 -3.55643 -9.49166 -4.52065 -3.73689 
-9.78051 -5.49856 -3.70733 -10.1512 -6.23995 -3.47355 -10.7258 -6.85318 -3.19358 
-11.1094 -0.202375 -2.35699 -12.0361 -0.36143 -2.13824 -13.0567 -0.648884 -1.84106 
-14.1494 -1.06839 -1.54286 -15.2298 -1.59336 -1.28903 -16.2672 -2.18964 -1.03689 
-17.2583 -2.86512 -0.781861 -18.1815 -3.61147 -0.589555 -19.0327 -4.34968 -0.473811 
-9.15149 0.268398 -2.46964 -7.98487 0.680306 -2.47909 -6.74614 1.03862 -2.4733 
-5.44185 1.19044 -2.34363 -4.17875 1.10935 -2.13448 -3.11244 0.930057 -1.91438 
-2.2672 0.672664 -1.58526 -1.57432 0.271391 -1.12612 -1.04489 -0.235313 -0.667683 
-9.96329 0.526666 -2.22573 -9.73199 1.28704 -1.92383 -9.53071 2.10187 -1.63476 
-9.41386 2.84079 -1.29132 -9.40603 3.46426 -0.791972 -9.45136 4.03411 -0.244144 
-9.58398 4.5231 0.22616 -9.85115 4.87778 0.711163 -10.1493 5.10134 1.28437 
-20.9463 -16.8114 -3.47142 -20.4321 -16.3507 -3.52315 -19.8012 -15.6053 -3.46817 
-19.0168 -14.5537 -3.37484 -18.1191 -13.267 -3.28284 -17.165 -11.781 -3.05728 
-16.0192 -10.1928 -2.74732 -14.5592 -8.82111 -2.63335 -12.979 -7.94008 -2.76595 
-21.5045 -16.0276 -3.19428 -21.5965 -14.8312 -3.00135 -21.6391 -13.519 -2.77742 
-21.5504 -12.1183 -2.48631 -21.3226 -10.6999 -2.1223 -21.0621 -9.33355 -1.74578 
-20.7899 -8.05221 -1.40169 -20.4664 -6.89692 -1.06713 -20.1227 -5.89118 -0.72262 
-21.4385 -18.8531 -3.57985 -21.358 -20.6886 -3.8422 -21.0792 -22.5713 -4.09647 
-20.5023 -24.554 -4.19585 -19.6892 -26.5002 -4.16819 -18.9695 -28.0814 -4.17207 
-18.4743 -29.1438 -4.07525 -18.0232 -29.7109 -3.6775 -17.6138 -29.7787 -3.13805 
-21.8384 -18.3329 -3.41345 -22.2755 -19.5602 -3.48451 -22.6744 -20.7063 -3.50914 
-23.025 -21.7505 -3.38668 -23.2905 -22.5904 -3.14681 -23.5338 -23.1182 -2.89894 
-23.8572 -23.3938 -2.61723 -24.1809 -23.4963 -2.21101 -24.3766 -23.3916 -1.71054 
-9.17929 -3.11925 3.73179 -10.4753 -3.97302 3.6424 -11.9327 -4.87431 3.46963 
-13.56 -5.94442 3.18229 -15.3134 -7.43656 2.83065 -16.9548 -9.40952 2.47039 
-18.2519 -11.5669 2.0467 -19.1816 -13.6519 1.61223 -19.8111 -15.6423 1.31836 
-8.11639 -2.88265 3.51504 -8.15862 -3.43856 3.19728 -8.21617 -4.07494 2.86448 
-8.40792 -4.76351 2.52074 -8.79073 -5.41089 2.13819 -9.3124 -6.06971 1.77256 
-9.97994 -6.74903 1.44748 -10.7598 -7.34852 1.12205 -11.5185 -7.89754 0.819877 
-8.81507 -2.16434 3.87397 -9.80352 -1.99697 3.87594 -11.0247 -1.94238 3.80813 
-12.3814 -2.143 3.80592 -13.8582 -2.60734 3.86521 -15.4113 -3.26747 3.87209 
-16.8689 -4.02176 3.8454 -18.1152 -4.7217 3.81772 -19.1483 -5.30021 3.69182 
-7.14754 -1.88981 3.54913 -6.22778 -1.46468 3.25077 -5.23324 -1.0889 2.92682 
-4.14193 -0.823566 2.6423 -3.14687 -0.671687 2.3246 -2.32766 -0.58202 1.89009 
-1.55604 -0.531883 1.3733 -0.917315 -0.547457 0.824969 -0.644681 -0.635316 0.264666 
-7.55456 -1.34796 3.77382 -7.16016 -0.217759 3.75816 -6.94201 0.998742 3.77458 
-6.91929 2.23523 3.7751 -7.15881 3.37965 3.6518 -7.6414 4.28221 3.45532 
-8.27807 4.90385 3.2238 -9.0261 5.26357 2.85843 -9.77421 5.34566 2.36444 
-19.7909 -16.9861 1.05017 -19.324 -16.2601 0.922427 -18.7431 -15.3536 0.855671 
-18.048 -14.2965 0.857515 -17.2691 -13.1636 0.883642 -16.4062 -12.0303 0.907722 
-15.4588 -10.9134 0.900436 -14.4275 -9.87494 0.842712 -13.3185 -9.04979 0.737153 
-20.4366 -16.8007 1.31295 -20.6982 -15.9058 1.46168 -20.9043 -14.8452 1.67394 
-20.992 -13.6561 1.94618 -20.9711 -12.3255 2.22052 -20.8374 -10.8457 2.49077 
-20.6017 -9.38881 2.76503 -20.3683 -8.10081 3.02182 -20.1847 -6.92498 3.24532 
-20.1949 -19.1528 0.963809 -20.0889 -20.9216 0.693583 -19.8437 -22.7769 0.40508 
-19.4423 -24.6072 0.136348 -18.992 -26.2359 -0.211155 -18.6141 -27.527 -0.696296 
-18.2236 -28.4875 -1.24756 -17.7733 -29.1631 -1.80496 -17.4594 -29.4957 -2.31082 
-20.611 -18.9783 1.12679 -21.0448 -20.4051 1.02422 -21.5559 -21.6455 0.86739 
-22.1348 -22.6063 0.697615 -22.6823 -23.3076 0.492002 -23.1454 -23.7193 0.195761 
-23.5689 -23.7937 -0.158515 -23.9604 -23.6488 -0.505538 -24.2624 -23.4154 -0.850422 
-11.4462 -7.83972 -2.81808 -11.4506 -8.10773 -2.55839 -11.461 -8.33462 -2.23345 
-11.3751 -8.54619 -1.87634 -11.3487 -8.62325 -1.45802 -11.5089 -8.54139 -1.00516 
-11.6826 -8.51844 -0.545913 -11.7863 -8.58621 -0.092735 -11.947 -8.57965 0.291667 
-13.4865 -8.76014 -2.67269 -15.317 -10.8251 -2.58475 -16.4901 -13.561 -2.6692 
-17.1788 -16.5249 -2.79516 -17.7837 -19.344 -2.90807 -18.0806 -21.8307 -2.96976 
-17.9602 -24.0618 -2.92233 -17.7453 -26.1851 -2.84551 -17.5612 -28.053 -2.80301 
-9.7928 -7.05307 -3.2132 -8.26594 -6.7494 -3.31202 -6.89663 -6.26355 -3.16991 
-5.56709 -5.56135 -2.88736 -4.40383 -4.79604 -2.51246 -3.44452 -3.98084 -2.05908 
-2.55338 -3.13056 -1.61707 -1.74082 -2.31439 -1.19688 -1.12011 -1.52662 -0.740838 
-13.5691 -9.59962 0.444121 -14.8897 -11.2171 0.158177 -15.9453 -13.2745 -0.317623 
-16.7137 -15.5843 -0.740493 -17.3258 -18.1285 -0.895911 -17.7497 -20.9395 -1.08858 
-17.8704 -23.7194 -1.60336 -17.7353 -26.0972 -2.14907 -17.5207 -27.9786 -2.46867 
-10.6089 -7.76769 0.503277 -8.88256 -7.24423 0.449204 -7.08321 -6.81205 0.482857 
-5.3407 -6.33011 0.550444 -3.88175 -5.69557 0.545384 -2.78995 -4.89434 0.434242 
-1.94806 -3.94754 0.236046 -1.28979 -2.88649 0.00991518 -0.8749 -1.79251 -0.162927 
-20.0589 -4.89791 -0.105862 -20.2934 -4.79577 0.216887 -20.4776 -4.71461 0.594338 
-20.6416 -4.60201 1.08328 -20.738 -4.52921 1.69445 -20.6635 -4.636 2.27567 
-20.5043 -4.87382 2.69605 -20.3842 -5.14525 3.00236 -20.2366 -5.46044 3.24803 
-20.7157 -6.25069 -0.493123 -21.6103 -7.70383 -0.586057 -22.4838 -9.38493 -0.708667 
-23.3532 -11.2056 -0.913403 -24.1566 -13.0669 -1.17041 -24.749 -15.0958 -1.39769 
-24.9974 -17.4458 -1.50991 -24.9305 -19.8154 -1.47037 -24.7128 -21.7215 -1.34279 
-18.9952 -3.77462 -0.106164 -18.1286 -2.44708 0.161939 -17.2625 -1.10244 0.416201 
-16.3507 0.124378 0.696943 -15.3251 1.2294 0.982315 -14.2459 2.29861 1.22074 
-13.2023 3.26883 1.4206 -12.2264 4.05768 1.58644 -11.3013 4.69482 1.72571 
-20.8515 -7.09438 2.92496 -21.7189 -8.67091 2.40012 -22.6199 -10.4668 1.98837 
-23.5402 -12.2592 1.64953 -24.3383 -14.0306 1.25797 -24.831 -15.9935 0.803617 
-24.9639 -18.1335 0.297608 -24.8534 -20.1461 -0.254189 -24.6584 -21.7943 -0.775429 
-19.1906 -4.37372 3.69794 -18.2543 -2.83257 3.83149 -17.2839 -1.25715 3.8612 
-16.2478 0.280921 3.85687 -15.0935 1.6901 3.78138 -13.9909 2.82671 3.56918 
-13.0096 3.67438 3.22556 -12.058 4.34211 2.80143 -11.1623 4.85501 2.34359 
-17.5238 -30.6349 -2.7311 -18.1442 -31.4168 -2.66139 -19.367 -31.5865 -2.47084 
-20.6703 -31.1449 -2.27768 -21.5308 -30.2502 -2.16548 -22.1733 -29.048 -2.02854 
-22.9174 -27.5873 -1.80981 -23.6126 -25.9927 -1.58451 -24.1069 -24.4704 -1.39049 
-0.747601 0.336213 -0.0576532 -1.04619 1.43338 0.119154 -1.69864 2.44962 0.269431 
-2.63828 3.42342 0.441809 -3.64498 4.33303 0.622859 -4.72904 5.02652 0.809389 
-6.13098 5.44961 1.06876 -7.73675 5.61595 1.3818 -9.18927 5.50905 1.65932 
-10.9364 -1.38029 -2.87119 -10.7254 -2.04402 -3.07873 -12.0898 -2.41915 -2.92092 
-10.5676 -2.84093 -3.23164 -11.971 -3.1733 -3.0834 -13.3422 -3.67824 -2.79257 
-10.5717 -3.6771 -3.3899 -11.9514 -4.03904 -3.14184 -13.4023 -4.52768 -2.8696 
-14.8803 -5.21455 -2.59822 -10.7781 -4.58287 -3.5828 -12.204 -4.92786 -3.23085 
-13.6669 -5.50616 -2.86758 -15.2027 -6.26695 -2.65473 -16.7241 -7.21408 -2.606 
-11.0968 -5.53026 -3.58176 -12.6624 -5.84804 -3.29609 -14.2309 -6.52138 -2.95376 
-15.7147 -7.47977 -2.73288 -17.1806 -8.59503 -2.74624 -18.4437 -9.67647 -2.85355 
-11.5112 -6.33635 -3.2864 -13.1787 -6.77665 -3.09329 -14.8764 -7.6205 -2.98268 
-16.3479 -8.77859 -2.91131 -17.646 -10.097 -2.92216 -18.8018 -11.3282 -3.05359 
-19.6737 -12.2658 -3.13629 -12.136 -7.06746 -2.95461 -13.8058 -7.72625 -2.7736 
-15.4578 -8.85443 -2.83966 -16.8445 -10.232 -3.02664 -17.9939 -11.6518 -3.12937 
-19.0032 -12.9707 -3.22105 -19.8327 -13.9995 -3.33067 -20.4498 -14.6763 -3.33511 
-8.69815 -0.178878 -2.735 -7.46695 0.175115 -2.77488 -8.34897 -0.799579 -3.00136 
-6.20441 0.39447 -2.71445 -7.11774 -0.577936 -3.03212 -8.15097 -1.63375 -3.2145 
-4.90352 0.361201 -2.49085 -5.85825 -0.542776 -2.88729 -6.91841 -1.58557 -3.17763 
-8.05275 -2.56676 -3.37381 -3.70866 0.147558 -2.2434 -4.60638 -0.698589 -2.61819 
-5.66315 -1.6847 -2.9766 -6.80004 -2.65704 -3.25242 -8.10034 -3.58443 -3.53814 
-2.75652 -0.143477 -1.97486 -3.54119 -0.974417 -2.35153 -4.52853 -1.89007 -2.73325 
-5.60372 -2.83826 -3.05192 -6.9195 -3.77761 -3.35533 -8.37233 -4.71525 -3.66511 
-2.02272 -0.535995 -1.58316 -2.73025 -1.36132 -2.00547 -3.65059 -2.23273 -2.4323 
-4.63399 -3.13411 -2.83256 -5.85004 -4.0365 -3.14915 -7.32628 -4.96301 -3.45904 
-8.73675 -5.72862 -3.6475 -1.46825 -1.02121 -1.14364 -2.13551 -1.83254 -1.58584 
-3.00744 -2.68202 -2.01838 -3.93759 -3.55868 -2.48315 -5.00057 -4.40225 -2.89085 
-6.35803 -5.24569 -3.20899 -7.77707 -5.99596 -3.45959 -9.14493 -6.46692 -3.47828 
-1.37576 -2.60819 -0.665924 -1.87278 -3.73944 -0.52507 -2.11561 -3.43796 -1.15633 
-2.51471 -4.84093 -0.299536 -2.62596 -4.60515 -1.06314 -2.98647 -4.29404 -1.61552 
-3.38092 -5.79709 -0.0429502 -3.27564 -5.71876 -0.836614 -3.54262 -5.45206 -1.55131 
-3.9505 -5.13632 -2.0715 -4.7135 -6.50123 0.115904 -4.33236 -6.61269 -0.537811 
-4.35334 -6.5126 -1.31938 -4.65424 -6.23928 -1.98948 -5.05828 -5.91581 -2.49379 
[...]
POINT_DATA 1002
FIELD FieldData 4
_paraPhi 1 1002 double
6.2831853072 3.1415926536 6.2831853072 3.1415926536 4.7123889804 4.7123889804 1.5707963268 1.5707963268 3.6951670125 
5.7296109483 2.5880182947 0.5535743589 6.2831853072 6.2831853072 6.2831853072 6.2831853072 3.1415926536 3.1415926536 
3.1415926536 3.1415926536 3.1415926536 6.1053039672 5.898798347 5.6768734901 5.4599499503 5.2659633393 5.1032165617 
4.9713148346 4.8656852733 4.7809517865 0.17788134 0.38438696014 0.60631181711 0.82323535693 1.0172219679 1.1799687454 
1.3118704726 1.4175000338 1.5022335207 6.1892828907 6.1070320098 6.035312792 5.9728339911 5.9183214791 5.8706119594 
5.8286879411 5.7916808611 5.7588591896 0.093902416448 0.17615329733 0.2478725152 0.31035131605 0.36486382811 0.41257334776 
0.45449736604 0.4915044461 0.52432611754 3.3194739936 3.5259796137 3.7479044707 3.9648280105 4.1588146215 4.321561399 
4.4534631262 4.5590926874 4.6438261743 2.9637113136 2.7572056934 2.5352808365 2.3183572967 2.1243706857 1.9616239082 
1.829722181 1.7240926197 1.6393591329 3.23549507 3.3177459509 3.3894651688 3.4519439696 3.5064564817 3.5541660013 
3.5960900196 3.6330970997 3.6659187711 3.0476902371 2.9654393563 2.8937201384 2.8312413375 2.7767288255 2.7290193058 
2.6870952876 2.6500882075 2.617266536 6.2831853072 6.2831853072 6.2831853072 6.2831853072 3.1415926536 3.1415926536 
3.1415926536 3.1415926536 3.1415926536 6.1053039672 5.898798347 5.6768734901 5.4599499503 5.2659633393 5.1032165617 
4.9713148346 4.8656852733 4.7809517865 0.17788134 0.38438696014 0.60631181711 0.82323535693 1.0172219679 1.1799687454 
1.3118704726 1.4175000338 1.5022335207 6.1892828907 6.1070320098 6.035312792 5.9728339911 5.9183214791 5.8706119594 
5.8286879411 5.7916808611 5.7588591896 0.093902416448 0.17615329733 0.2478725152 0.31035131605 0.36486382811 0.41257334776 
0.45449736604 0.4915044461 0.52432611754 3.3194739936 3.5259796137 3.7479044707 3.9648280105 4.1588146215 4.321561399 
4.4534631262 4.5590926874 4.6438261743 2.9637113136 2.7572056934 2.5352808365 2.3183572967 2.1243706857 1.9616239082 
1.829722181 1.7240926197 1.6393591329 3.23549507 3.3177459509 3.3894651688 3.4519439696 3.5064564817 3.5541660013 
3.5960900196 3.6330970997 3.6659187711 3.0476902371 2.9654393563 2.8937201384 2.8312413375 2.7767288255 2.7290193058 
2.6870952876 2.6500882075 2.617266536 4.7123889804 4.7123889804 4.7123889804 4.7123889804 4.7123889804 4.7123889804 
4.7123889804 4.7123889804 4.7123889804 4.6087898617 4.4991390697 4.3857031936 4.2712800401 4.1588146215 4.0509635631 
3.94975894 3.8564636551 3.7716124825 4.8159880991 4.9256388911 5.0390747672 5.1534979207 5.2659633393 5.3738143976 
5.4750190208 5.5683143056 5.6531654782 4.6087898617 4.4991390697 4.3857031936 4.2712800401 4.1588146215 4.0509635631 
3.94975894 3.8564636551 3.7716124825 4.8159880991 4.9256388911 5.0390747672 5.1534979207 5.2659633393 5.3738143976 
5.4750190208 5.5683143056 5.6531654782 1.5707963268 1.5707963268 1.5707963268 1.5707963268 1.5707963268 1.5707963268 
1.5707963268 1.5707963268 1.5707963268 1.6743954455 1.7840462375 1.8974821136 2.0119052671 2.1243706857 2.232221744 
2.3334263672 2.426721652 2.5115728246 1.4671972081 1.3575464161 1.24411054 1.1296873865 1.0172219679 0.90937090954 
0.80816628637 0.71487100155 0.63001982895 1.6743954455 1.7840462375 1.8974821136 2.0119052671 2.1243706857 2.232221744 
2.3334263672 2.426721652 2.5115728246 1.4671972081 1.3575464161 1.24411054 1.1296873865 1.0172219679 0.90937090954 
0.80816628637 0.71487100155 0.63001982895 3.6007720849 3.4966939854 3.3839471039 3.2645756454 3.1415926536 3.0186096618 
2.8992382033 2.7864913217 2.6824132222 5.8240058758 5.9280839753 6.0408308569 6.1602023154 6.2831853072 0.12298299178 
0.2423544503 0.35510133185 0.45917943135 6.0560271438 5.7885595667 5.9702140275 5.5125918794 5.6029703303 5.7885595667 
5.2659633393 5.2659633393 5.2659633393 5.2659633393 5.0674903122 5.0120975802 4.9155579264 4.7123889804 4.1588146215 
4.9155579264 4.8353719722 4.7123889804 4.5092200343 4.1588146215 3.6362183941 4.8004512023 4.7123889804 4.5894059886 
4.4126803806 4.1588146215 3.8218076305 3.4545639333 4.7123889804 4.6243267584 4.5092200343 4.3572876485 4.1588146215 
3.9121860814 3.6362183941 3.368750817 6.0174235957 5.9434319871 5.8263323547 5.8809213739 5.7674481418 5.6279784266 
5.8278025282 5.718968232 5.5891129425 5.4372443565 5.7823484065 5.678536687 5.5575666702 5.4192596322 5.2659633393 
5.743164462 5.6444075337 5.5314983644 5.4046708639 5.2659633393 5.1195510325 5.7091357773 5.6152775188 5.5096229709 
5.3926039573 5.2659633393 5.1329233157 4.9978930058 5.6793730533 5.5901633916 5.4910209005 5.3824597928 5.2659633393 
5.1440684722 5.0201624502 4.8979782167 5.5683143056 5.4750190208 5.4750190208 5.3738143976 5.3738143976 5.3738143976 
5.2659633393 5.2659633393 5.2659633393 5.2659633393 5.1534979207 5.1534979207 5.1534979207 5.1534979207 5.1534979207 
5.0390747672 5.0390747672 5.0390747672 5.0390747672 5.0390747672 5.0390747672 4.9256388911 4.9256388911 4.9256388911 
4.9256388911 4.9256388911 4.9256388911 4.9256388911 4.8159880991 4.8159880991 4.8159880991 4.8159880991 4.8159880991 
4.8159880991 4.8159880991 4.8159880991 4.6087898617 4.6087898617 4.4991390697 4.6087898617 4.4991390697 4.3857031936 
4.6087898617 4.4991390697 4.3857031936 4.2712800401 4.6087898617 4.4991390697 4.3857031936 4.2712800401 4.1588146215 
4.6087898617 4.4991390697 4.3857031936 4.2712800401 4.1588146215 4.0509635631 4.6087898617 4.4991390697 4.3857031936 
4.2712800401 4.1588146215 4.0509635631 3.94975894 4.6087898617 4.4991390697 4.3857031936 4.2712800401 4.1588146215 
4.0509635631 3.94975894 3.8564636551 4.526799744 4.4046155105 4.426884955 4.2807094886 4.2918546451 4.3052269283 
4.1588146215 4.1588146215 4.1588146215 4.1588146215 4.042318168 4.0321740035 4.0201070968 4.0055183285 3.9875336042 
3.9337570603 3.9151549899 3.8932795963 3.8672112905 3.8356650183 3.7967995342 3.8346145692 3.809500442 3.7803704271 
3.7462412737 3.7058097288 3.657329819 3.5984456061 3.7454049075 3.7156421835 3.6816134988 3.6424295543 3.5969754326 
3.5438565869 3.4813459737 3.4073543651 3.5642842451 3.4524645613 3.5233842518 3.3320300872 3.403123212 3.4773852225 
3.20576226 3.2746326772 3.348015857 3.4255060145 3.0774230472 3.1415926536 3.2112816139 3.2864685043 3.3668817272 
2.95115522 3.00855263 3.0719036933 3.1415926536 3.2178377658 3.3005964304 2.8307207459 2.8800620952 2.9351694502 
2.9967168029 3.0653475414 3.1415926536 3.225752376 2.718901062 2.7598010554 2.8058000847 2.8576792927 2.91630358 
2.9825888767 3.0574329311 3.1415926536 3.5642842451 3.5233842518 3.4524645613 3.4773852225 3.403123212 3.3320300872 
3.4255060145 3.348015857 3.2746326772 3.20576226 3.3668817272 3.2864685043 3.2112816139 3.1415926536 3.0774230472 
3.3005964304 3.2178377658 3.1415926536 3.0719036933 3.00855263 2.95115522 3.225752376 3.1415926536 3.0653475414 
2.9967168029 2.9351694502 2.8800620952 2.8307207459 3.1415926536 3.0574329311 2.9825888767 2.91630358 2.8576792927 
2.8058000847 2.7598010554 2.718901062 4.526799744 4.426884955 4.4046155105 4.3052269283 4.2918546451 4.2807094886 
4.1588146215 4.1588146215 4.1588146215 4.1588146215 3.9875336042 4.0055183285 4.0201070968 4.0321740035 4.042318168 
3.7967995342 3.8356650183 3.8672112905 3.8932795963 3.9151549899 3.9337570603 3.5984456061 3.657329819 3.7058097288 
3.7462412737 3.7803704271 3.809500442 3.8346145692 3.4073543651 3.4813459737 3.5438565869 3.5969754326 3.6424295543 
3.6816134988 3.7156421835 3.7454049075 4.7123889804 4.8004512023 4.6243267584 4.9155579264 4.7123889804 4.5092200343 
5.0674903122 4.8353719722 4.5894059886 4.3572876485 5.2659633393 5.0120975802 4.7123889804 4.4126803806 4.1588146215 
5.5125918794 5.2659633393 4.9155579264 4.5092200343 4.1588146215 3.9121860814 5.7885595667 5.6029703303 5.2659633393 
4.7123889804 4.1588146215 3.8218076305 3.6362183941 6.0560271438 5.9702140275 5.7885595667 5.2659633393 4.1588146215 
3.6362183941 3.4545639333 3.368750817 0.22715816343 0.49462574053 0.3129712797 0.77059342779 0.68021497688 0.49462574053 
1.0172219679 1.0172219679 1.0172219679 1.0172219679 1.2156949949 1.271087727 1.3676273807 1.5707963268 2.1243706857 
1.3676273807 1.447813335 1.5707963268 1.7739652728 2.1243706857 2.6469669131 1.4827341049 1.5707963268 1.6937793186 
1.8705049266 2.1243706857 2.4613776767 2.8286213739 1.5707963268 1.6588585487 1.7739652728 1.9258976586 2.1243706857 
2.3709992258 2.6469669131 2.9144344902 1.7563855631 1.8785697967 1.8563003522 2.0024758186 1.9913306621 1.9779583789 
2.1243706857 2.1243706857 2.1243706857 2.1243706857 2.2408671392 2.2510113037 2.2630782103 2.2776669786 2.295651703 
2.3494282469 2.3680303173 2.3899057108 2.4159740166 2.4475202889 2.486385773 2.448570738 2.4736848652 2.5028148801 
2.5369440334 2.5773755784 2.6258554882 2.6847397011 2.5377803997 2.5675431237 2.6015718084 2.6407557529 2.6862098746 
2.7393287203 2.8018393335 2.8758309421 1.6743954455 1.6743954455 1.7840462375 1.6743954455 1.7840462375 1.8974821136 
1.6743954455 1.7840462375 1.8974821136 2.0119052671 1.6743954455 1.7840462375 1.8974821136 2.0119052671 2.1243706857 
1.6743954455 1.7840462375 1.8974821136 2.0119052671 2.1243706857 2.232221744 1.6743954455 1.7840462375 1.8974821136 
2.0119052671 2.1243706857 2.232221744 2.3334263672 1.6743954455 1.7840462375 1.8974821136 2.0119052671 2.1243706857 
2.232221744 2.3334263672 2.426721652 1.4671972081 1.3575464161 1.4671972081 1.24411054 1.3575464161 1.4671972081 
1.1296873865 1.24411054 1.3575464161 1.4671972081 1.0172219679 1.1296873865 1.24411054 1.3575464161 1.4671972081 
0.90937090954 1.0172219679 1.1296873865 1.24411054 1.3575464161 1.4671972081 0.80816628637 0.90937090954 1.0172219679 
1.1296873865 1.24411054 1.3575464161 1.4671972081 0.71487100155 0.80816628637 0.90937090954 1.0172219679 1.1296873865 
1.24411054 1.3575464161 1.4671972081 0.60381225391 0.57404952988 0.69302191562 0.54002084522 0.66790778838 0.79216440667 
0.50083690068 0.63877777351 0.77356233629 0.90072551443 0.45538277901 0.60464862014 0.75168694275 0.89058134991 1.0172219679 
0.40226393329 0.56421707518 0.72561863695 0.87851444325 1.0172219679 1.139116835 0.33975332011 0.51573716537 0.69407236469 
0.86392567495 1.0172219679 1.1502619915 1.2630228569 0.26576171152 0.45685295248 0.6552068806 0.84594095064 1.0172219679 
1.1636342747 1.2852923014 1.3852070904 0.22715816343 0.3129712797 0.49462574053 0.49462574053 0.68021497688 0.77059342779 
1.0172219679 1.0172219679 1.0172219679 1.0172219679 2.1243706857 1.5707963268 1.3676273807 1.271087727 1.2156949949 
2.6469669131 2.1243706857 1.7739652728 1.5707963268 1.447813335 1.3676273807 2.8286213739 2.4613776767 2.1243706857 
1.8705049266 1.6937793186 1.5707963268 1.4827341049 2.9144344902 2.6469669131 2.3709992258 2.1243706857 1.9258976586 
1.7739652728 1.6588585487 1.5707963268 1.7563855631 1.8563003522 1.8785697967 1.9779583789 1.9913306621 2.0024758186 
2.1243706857 2.1243706857 2.1243706857 2.1243706857 2.295651703 2.2776669786 2.2630782103 2.2510113037 2.2408671392 
2.486385773 2.4475202889 2.4159740166 2.3899057108 2.3680303173 2.3494282469 2.6847397011 2.6258554882 2.5773755784 
2.5369440334 2.5028148801 2.4736848652 2.448570738 2.8758309421 2.8018393335 2.7393287203 2.6862098746 2.6407557529 
2.6015718084 2.5675431237 2.5377803997 5.8604937156 5.901393709 5.9723133995 5.9473927383 6.0216547488 6.0927478736 
5.9992719463 6.0767621038 6.1501452836 6.2190157008 6.0578962336 6.1383094565 6.2134963469 0 0.064169606361 
6.1241815303 6.206940195 6.2831853072 0.069688960264 0.13304002361 0.19043743361 6.1990255847 0 0.07624511221 
0.14487585072 0.20642320337 0.26153055843 0.3108719077 0 0.084159722458 0.15900377685 0.22528907359 0.28391336087 
0.3357925689 0.38179159818 0.42269159155 5.8604937156 5.9723133995 5.901393709 6.0927478736 6.0216547488 5.9473927383 
6.2190157008 6.1501452836 6.0767621038 5.9992719463 0.064169606361 0 6.2134963469 6.1383094565 6.0578962336 
0.19043743361 0.13304002361 0.069688960264 6.2831853072 6.206940195 6.1241815303 0.3108719077 0.26153055843 0.20642320337 
0.14487585072 0.07624511221 6.2831853072 6.1990255847 0.42269159155 0.38179159818 0.3357925689 0.28391336087 0.22528907359 
0.15900377685 0.084159722458 0 5.6793730533 5.7091357773 5.5901633916 5.743164462 5.6152775188 5.4910209005 
5.7823484065 5.6444075337 5.5096229709 5.3824597928 5.8278025282 5.678536687 5.5314983644 5.3926039573 5.2659633393 
5.8809213739 5.718968232 5.5575666702 5.4046708639 5.2659633393 5.1440684722 5.9434319871 5.7674481418 5.5891129425 
5.4192596322 5.2659633393 5.1329233157 5.0201624502 6.0174235957 5.8263323547 5.6279784266 5.4372443565 5.2659633393 
5.1195510325 4.9978930058 4.8979782167 1.3852070904 1.2852923014 1.2630228569 1.1636342747 1.1502619915 1.139116835 
1.0172219679 1.0172219679 1.0172219679 1.0172219679 0.84594095064 0.86392567495 0.87851444325 0.89058134991 0.90072551443 
0.6552068806 0.69407236469 0.72561863695 0.75168694275 0.77356233629 0.79216440667 0.45685295248 0.51573716537 0.56421707518 
0.60464862014 0.63877777351 0.66790778838 0.69302191562 0.26576171152 0.33975332011 0.40226393329 0.45538277901 0.50083690068 
0.54002084522 0.57404952988 0.60381225391 
_paraPhiHalf 1 1002 double
0 3.1415926536 0 3.1415926536 1.5707963268 1.5707963268 1.5707963268 1.5707963268 2.5880182947 
0.5535743589 2.5880182947 0.5535743589 0 0 0 0 3.1415926536 3.1415926536 
3.1415926536 3.1415926536 3.1415926536 0.17788134 0.38438696014 0.60631181711 0.82323535693 1.0172219679 1.1799687454 
1.3118704726 1.4175000338 1.5022335207 0.17788134 0.38438696014 0.60631181711 0.82323535693 1.0172219679 1.1799687454 
1.3118704726 1.4175000338 1.5022335207 0.093902416448 0.17615329733 0.2478725152 0.31035131605 0.36486382811 0.41257334776 
0.45449736604 0.4915044461 0.52432611754 0.093902416448 0.17615329733 0.2478725152 0.31035131605 0.36486382811 0.41257334776 
0.45449736604 0.4915044461 0.52432611754 2.9637113136 2.7572056934 2.5352808365 2.3183572967 2.1243706857 1.9616239082 
1.829722181 1.7240926197 1.6393591329 2.9637113136 2.7572056934 2.5352808365 2.3183572967 2.1243706857 1.9616239082 
1.829722181 1.7240926197 1.6393591329 3.0476902371 2.9654393563 2.8937201384 2.8312413375 2.7767288255 2.7290193058 
2.6870952876 2.6500882075 2.617266536 3.0476902371 2.9654393563 2.8937201384 2.8312413375 2.7767288255 2.7290193058 
2.6870952876 2.6500882075 2.617266536 0 0 0 0 3.1415926536 3.1415926536 
3.1415926536 3.1415926536 3.1415926536 0.17788134 0.38438696014 0.60631181711 0.82323535693 1.0172219679 1.1799687454 
1.3118704726 1.4175000338 1.5022335207 0.17788134 0.38438696014 0.60631181711 0.82323535693 1.0172219679 1.1799687454 
1.3118704726 1.4175000338 1.5022335207 0.093902416448 0.17615329733 0.2478725152 0.31035131605 0.36486382811 0.41257334776 
0.45449736604 0.4915044461 0.52432611754 0.093902416448 0.17615329733 0.2478725152 0.31035131605 0.36486382811 0.41257334776 
0.45449736604 0.4915044461 0.52432611754 2.9637113136 2.7572056934 2.5352808365 2.3183572967 2.1243706857 1.9616239082 
1.829722181 1.7240926197 1.6393591329 2.9637113136 2.7572056934 2.5352808365 2.3183572967 2.1243706857 1.9616239082 
1.829722181 1.7240926197 1.6393591329 3.0476902371 2.9654393563 2.8937201384 2.8312413375 2.7767288255 2.7290193058 
2.6870952876 2.6500882075 2.617266536 3.0476902371 2.9654393563 2.8937201384 2.8312413375 2.7767288255 2.7290193058 
2.6870952876 2.6500882075 2.617266536 1.5707963268 1.5707963268 1.5707963268 1.5707963268 1.5707963268 1.5707963268 
1.5707963268 1.5707963268 1.5707963268 1.6743954455 1.7840462375 1.8974821136 2.0119052671 2.1243706857 2.232221744 
2.3334263672 2.426721652 2.5115728246 1.4671972081 1.3575464161 1.24411054 1.1296873865 1.0172219679 0.90937090954 
0.80816628637 0.71487100155 0.63001982895 1.6743954455 1.7840462375 1.8974821136 2.0119052671 2.1243706857 2.232221744 
2.3334263672 2.426721652 2.5115728246 1.4671972081 1.3575464161 1.24411054 1.1296873865 1.0172219679 0.90937090954 
0.80816628637 0.71487100155 0.63001982895 1.5707963268 1.5707963268 1.5707963268 1.5707963268 1.5707963268 1.5707963268 
1.5707963268 1.5707963268 1.5707963268 1.6743954455 1.7840462375 1.8974821136 2.0119052671 2.1243706857 2.232221744 
2.3334263672 2.426721652 2.5115728246 1.4671972081 1.3575464161 1.24411054 1.1296873865 1.0172219679 0.90937090954 
0.80816628637 0.71487100155 0.63001982895 1.6743954455 1.7840462375 1.8974821136 2.0119052671 2.1243706857 2.232221744 
2.3334263672 2.426721652 2.5115728246 1.4671972081 1.3575464161 1.24411054 1.1296873865 1.0172219679 0.90937090954 
0.80816628637 0.71487100155 0.63001982895 2.6824132222 2.7864913217 2.8992382033 3.0186096618 3.1415926536 3.0186096618 
2.8992382033 2.7864913217 2.6824132222 0.45917943135 0.35510133185 0.2423544503 0.12298299178 0 0.12298299178 
0.2423544503 0.35510133185 0.45917943135 0.22715816343 0.49462574053 0.3129712797 0.77059342779 0.68021497688 0.49462574053 
1.0172219679 1.0172219679 1.0172219679 1.0172219679 1.2156949949 1.271087727 1.3676273807 1.5707963268 2.1243706857 
1.3676273807 1.447813335 1.5707963268 1.7739652728 2.1243706857 2.6469669131 1.4827341049 1.5707963268 1.6937793186 
1.8705049266 2.1243706857 2.4613776767 2.8286213739 1.5707963268 1.6588585487 1.7739652728 1.9258976586 2.1243706857 
2.3709992258 2.6469669131 2.9144344902 0.26576171152 0.33975332011 0.45685295248 0.40226393329 0.51573716537 0.6552068806 
0.45538277901 0.56421707518 0.69407236469 0.84594095064 0.50083690068 0.60464862014 0.72561863695 0.86392567495 1.0172219679 
0.54002084522 0.63877777351 0.75168694275 0.87851444325 1.0172219679 1.1636342747 0.57404952988 0.66790778838 0.77356233629 
0.89058134991 1.0172219679 1.1502619915 1.2852923014 0.60381225391 0.69302191562 0.79216440667 0.90072551443 1.0172219679 
1.139116835 1.2630228569 1.3852070904 0.71487100155 0.80816628637 0.80816628637 0.90937090954 0.90937090954 0.90937090954 
1.0172219679 1.0172219679 1.0172219679 1.0172219679 1.1296873865 1.1296873865 1.1296873865 1.1296873865 1.1296873865 
1.24411054 1.24411054 1.24411054 1.24411054 1.24411054 1.24411054 1.3575464161 1.3575464161 1.3575464161 
1.3575464161 1.3575464161 1.3575464161 1.3575464161 1.4671972081 1.4671972081 1.4671972081 1.4671972081 1.4671972081 
1.4671972081 1.4671972081 1.4671972081 1.6743954455 1.6743954455 1.7840462375 1.6743954455 1.7840462375 1.8974821136 
1.6743954455 1.7840462375 1.8974821136 2.0119052671 1.6743954455 1.7840462375 1.8974821136 2.0119052671 2.1243706857 
1.6743954455 1.7840462375 1.8974821136 2.0119052671 2.1243706857 2.232221744 1.6743954455 1.7840462375 1.8974821136 
2.0119052671 2.1243706857 2.232221744 2.3334263672 1.6743954455 1.7840462375 1.8974821136 2.0119052671 2.1243706857 
2.232221744 2.3334263672 2.426721652 1.7563855631 1.8785697967 1.8563003522 2.0024758186 1.9913306621 1.9779583789 
2.1243706857 2.1243706857 2.1243706857 2.1243706857 2.2408671392 2.2510113037 2.2630782103 2.2776669786 2.295651703 
2.3494282469 2.3680303173 2.3899057108 2.4159740166 2.4475202889 2.486385773 2.448570738 2.4736848652 2.5028148801 
2.5369440334 2.5773755784 2.6258554882 2.6847397011 2.5377803997 2.5675431237 2.6015718084 2.6407557529 2.6862098746 
2.7393287203 2.8018393335 2.8758309421 2.718901062 2.8307207459 2.7598010554 2.95115522 2.8800620952 2.8058000847 
3.0774230472 3.00855263 2.9351694502 2.8576792927 3.0774230472 3.1415926536 3.0719036933 2.9967168029 2.91630358 
2.95115522 3.00855263 3.0719036933 3.1415926536 3.0653475414 2.9825888767 2.8307207459 2.8800620952 2.9351694502 
2.9967168029 3.0653475414 3.1415926536 3.0574329311 2.718901062 2.7598010554 2.8058000847 2.8576792927 2.91630358 
2.9825888767 3.0574329311 3.1415926536 2.718901062 2.7598010554 2.8307207459 2.8058000847 2.8800620952 2.95115522 
2.8576792927 2.9351694502 3.00855263 3.0774230472 2.91630358 2.9967168029 3.0719036933 3.1415926536 3.0774230472 
2.9825888767 3.0653475414 3.1415926536 3.0719036933 3.00855263 2.95115522 3.0574329311 3.1415926536 3.0653475414 