# vtk DataFile Version 5.1
vtk output
ASCII
DATASET POLYDATA
POINTS 1002 float
-10.222 0.0348793 -1.62857 -21.4061 -16.8523 -2.52905 -8.36813 -2.28144 4.4669 
-20.1574 -17.4104 1.97246 -12.1689 -7.27961 -1.71172 -12.1007 -8.30545 1.34398 
-19.8174 -4.80646 0.617267 -19.8364 -5.46767 4.40252 -17.0434 -28.3712 -2.71195 
-0.800981 -0.474819 0.145164 -24.09 -23.1082 -0.542674 -10.3216 5.05338 2.86566 
-11.0926 -0.761733 -1.65022 -12.1501 -1.67467 -1.6433 -13.3633 -2.74661 -1.55041 
-14.7346 -4.08236 -1.45856 -16.3453 -5.82464 -1.50634 -18.071 -8.01233 -1.67167 
-19.5128 -10.4102 -1.91433 -20.462 -12.7077 -2.20927 -21.0418 -14.8364 -2.4325 
-9.94801 -0.442517 -1.83346 -9.72398 -1.03572 -2.03002 -9.56386 -1.72943 -2.29126 
-9.51656 -2.48189 -2.55915 -9.68516 -3.34978 -2.66799 -10.0396 -4.4313 -2.63083 
-10.4164 -5.51663 -2.55049 -10.8193 -6.27576 -2.36945 -11.3943 -6.76583 -2.05033 
-11.0373 -0.03557 -1.38506 -11.95 -0.191794 -1.12282 -12.9717 -0.46637 -0.85267 
-14.0703 -0.876063 -0.532369 -15.1874 -1.41389 -0.210387 -16.2811 -2.06211 0.0254564 
-17.3008 -2.77499 0.231407 -18.216 -3.4945 0.436764 -19.0508 -4.18042 0.565279 
-9.20863 0.518376 -1.76397 -8.06726 0.988263 -1.87698 -6.81098 1.35678 -1.87694 
-5.50305 1.50848 -1.76534 -4.20925 1.44949 -1.63944 -3.03961 1.29204 -1.4668 
-2.10127 1.04868 -1.13686 -1.40095 0.648087 -0.699666 -0.951333 0.106339 -0.265552 
-9.95138 0.762608 -1.44432 -9.73899 1.48906 -1.18252 -9.55591 2.23502 -0.880074 
-9.41841 2.99542 -0.532511 -9.38091 3.67368 -0.0622357 -9.4533 4.22502 0.466545 
-9.62652 4.67507 0.95322 -9.87749 4.98612 1.50129 -10.1302 5.10454 2.17963 
-20.9689 -16.5501 -2.6135 -20.4517 -16.0552 -2.62168 -19.8919 -15.3709 -2.53092 
-19.2435 -14.4351 -2.43655 -18.3835 -13.1157 -2.3646 -17.3318 -11.4679 -2.17211 
-16.2182 -9.85109 -1.87367 -15.0137 -8.59555 -1.67121 -13.633 -7.76393 -1.63883 
-21.5927 -15.7925 -2.36956 -21.7252 -14.5967 -2.17999 -21.7998 -13.239 -1.95472 
-21.7492 -11.7647 -1.65033 -21.5177 -10.2919 -1.28276 -21.1909 -8.90606 -0.908254 
-20.8618 -7.64285 -0.527022 -20.5179 -6.53689 -0.132389 -20.1574 -5.60069 0.253518 
-21.3791 -18.8275 -2.65167 -21.171 -20.9404 -2.88132 -20.739 -22.881 -3.29736 
-20.1343 -24.5801 -3.72324 -19.4553 -26.144 -3.96805 -18.7469 -27.4417 -4.12826 
-18.0491 -28.3098 -4.22015 -17.4739 -28.7528 -4.00484 -17.1344 -28.7608 -3.42694 
-21.7925 -18.1983 -2.50593 -22.1086 -19.5121 -2.50277 -22.378 -20.7407 -2.50117 
-22.6507 -21.8317 -2.44222 -22.9186 -22.7002 -2.31901 -23.1669 -23.281 -2.14271 
-23.4487 -23.5775 -1.85166 -23.7569 -23.62 -1.43774 -23.9852 -23.4437 -0.98772 
-9.29785 -3.05018 4.51656 -10.414 -3.90584 4.50216 -11.7805 -4.84803 4.38055 
-13.4289 -5.91041 4.08962 -15.1924 -7.26431 3.68865 -16.8152 -9.04519 3.28979 
-18.1647 -11.1157 2.85453 -19.1772 -13.2699 2.39794 -19.8204 -15.4047 2.09092 
-8.33953 -2.82976 4.2095 -8.29203 -3.4185 3.94221 -8.25933 -4.09843 3.66194 
-8.35172 -4.84038 3.34532 -8.66597 -5.54842 2.99596 -9.17655 -6.18258 2.61215 
-9.8112 -6.76732 2.21784 -10.5418 -7.31071 1.88186 -11.3289 -7.81355 1.60868 
-8.9663 -2.20122 4.74779 -9.79178 -2.15689 4.92804 -10.9632 -2.19119 4.92834 
-12.3617 -2.37764 4.86314 -13.8132 -2.76424 4.89124 -15.3185 -3.33984 4.95006 
-16.8105 -4.00971 4.92928 -18.0851 -4.61675 4.83476 -19.0704 -5.08335 4.66356 
-7.4752 -1.89849 4.20855 -6.50428 -1.5275 3.90007 -5.51197 -1.18135 3.54668 
-4.55151 -0.893584 3.14214 -3.59482 -0.659043 2.72367 -2.67886 -0.473669 2.32598 
-1.90156 -0.37476 1.87615 -1.29076 -0.361576 1.31258 -0.897524 -0.399214 0.703623 
-7.87701 -1.40091 4.53917 -7.47343 -0.355744 4.54805 -7.24087 0.789871 4.53579 
-7.22511 1.96976 4.52677 -7.41991 3.06373 4.41486 -7.78659 3.92801 4.14954 
-8.32169 4.55865 3.87502 -9.01579 4.97817 3.64193 -9.73763 5.13705 3.31967 
-19.7324 -16.8171 1.90912 -19.2731 -16.0325 1.80981 -18.767 -15.0671 1.69056 
-18.1532 -13.9381 1.61132 -17.3308 -12.7148 1.65205 -16.3064 -11.5444 1.78597 
-15.2307 -10.5179 1.84139 -14.1919 -9.61826 1.7364 -13.1555 -8.85908 1.54835 
-20.4106 -16.6556 2.07288 -20.5945 -15.7224 2.24106 -20.7195 -14.5955 2.49251 
-20.8233 -13.2785 2.72725 -20.8229 -11.8171 2.90101 -20.6467 -10.3363 3.13682 
-20.4201 -8.98326 3.49266 -20.2457 -7.76789 3.86981 -20.0683 -6.59881 4.18177 
-20.0595 -19.0618 1.85361 -19.8628 -20.795 1.61015 -19.6138 -22.5461 1.23321 
-19.2647 -24.2365 0.803783 -18.8021 -25.738 0.284538 -18.3525 -26.9089 -0.344755 
-17.9397 -27.709 -0.956507 -17.5046 -28.209 -1.53546 -17.1575 -28.4417 -2.14552 
-20.5493 -18.8964 1.96382 -20.9734 -20.2971 1.91325 -21.4295 -21.4897 1.7609 
-21.8978 -22.4413 1.51054 -22.3999 -23.1678 1.22521 -22.8833 -23.6179 0.922884 
-23.2494 -23.757 0.567333 -23.5473 -23.6787 0.169616 -23.8455 -23.4678 -0.213457 
-11.8399 -7.49002 -1.57204 -11.6301 -7.81237 -1.43321 -11.4964 -8.13524 -1.3054 
-11.3733 -8.32059 -1.063 -11.3264 -8.40284 -0.625254 -11.4073 -8.47467 -0.150323 
-11.5485 -8.4991 0.243542 -11.7119 -8.44007 0.624007 -11.9024 -8.35813 1.01062 
-13.9754 -8.4384 -1.48085 -15.5804 -10.477 -1.59291 -16.6035 -13.2309 -1.8626 
-17.2386 -16.1893 -1.95447 -17.7731 -19.042 -1.93067 -17.988 -21.6793 -2.06867 
-17.7717 -23.9417 -2.34433 -17.4241 -25.784 -2.59294 -17.1614 -27.2654 -2.73091 
-10.1493 -6.74524 -2.08584 -8.28757 -6.35583 -2.43171 -6.84034 -5.8349 -2.4287 
-5.65096 -5.11661 -2.08003 -4.47703 -4.30954 -1.7122 -3.36865 -3.5331 -1.45472 
-2.41619 -2.80985 -1.15632 -1.61766 -2.05752 -0.750103 -1.04981 -1.24859 -0.298752 
-13.4985 -9.28166 1.1664 -14.8041 -10.7249 0.892835 -15.9067 -12.6601 0.572694 
-16.7664 -15.1038 0.332829 -17.3277 -17.9785 0.121538 -17.5222 -20.8956 -0.275034 
-17.4335 -23.4087 -0.859557 -17.2601 -25.4324 -1.47242 -17.1182 -27.0807 -2.07952 
-10.4424 -7.69131 1.29783 -8.61029 -7.28704 1.25243 -6.84716 -6.86692 1.20153 
-5.2918 -6.2823 1.14239 -3.9629 -5.57127 1.07289 -2.91652 -4.71255 0.949135 
-2.12714 -3.69147 0.748631 -1.47991 -2.61132 0.515026 -1.00263 -1.52829 0.30554 
-20.0733 -4.70387 0.887024 -20.3284 -4.565 1.2261 -20.5414 -4.38365 1.63893 
-20.6833 -4.21054 2.1227 -20.7343 -4.14147 2.67455 -20.6507 -4.19415 3.2385 
-20.462 -4.33183 3.71588 -20.2654 -4.59474 4.06052 -20.0725 -5.0065 4.28254 
-20.7688 -5.94147 0.436545 -21.7048 -7.32541 0.281046 -22.5858 -8.99097 0.124493 
-23.4777 -10.7599 -0.102154 -24.2797 -12.5948 -0.341761 -24.703 -14.8484 -0.487512 
-24.7378 -17.513 -0.559708 -24.6161 -19.9681 -0.592717 -24.4103 -21.8044 -0.578305 
-19.0107 -3.65769 0.95685 -18.141 -2.40057 1.29 -17.2234 -1.08033 1.54765 
-16.2757 0.183857 1.72352 -15.279 1.3246 1.92371 -14.1952 2.34768 2.16561 
-13.1031 3.22969 2.34635 -12.1278 3.95945 2.49061 -11.2379 4.57244 2.67964 
-20.701 -6.67117 3.93327 -21.6191 -8.26116 3.38421 -22.5551 -10.1811 2.83615 
-23.4532 -12.2093 2.3584 -24.2082 -14.2625 1.99513 -24.6523 -16.4244 1.65503 
-24.742 -18.5919 1.16327 -24.6056 -20.4708 0.53264 -24.3683 -21.9368 -0.0643278 
-19.0956 -4.12545 4.70754 -18.2327 -2.71855 4.8718 -17.2524 -1.26767 4.9106 
-16.1159 0.147772 4.90925 -14.8999 1.48268 4.87863 -13.8213 2.66978 4.71137 
-12.893 3.569 4.3608 -11.9834 4.17978 3.90464 -11.1064 4.65159 3.40223 
-17.1038 -29.4931 -3.01069 -17.5486 -30.2488 -3.12365 -18.5577 -30.5366 -2.90856 
-19.8229 -30.3706 -2.47374 -20.8575 -29.7417 -2.0808 -21.6651 -28.7208 -1.78169 
-22.4208 -27.4573 -1.46849 -23.0833 -26.0163 -1.12612 -23.6317 -24.5169 -0.809099 
-0.867815 0.607552 0.337643 -1.29216 1.60266 0.535554 -2.06032 2.4776 0.740399 
-2.98737 3.40996 0.989203 -3.87561 4.38909 1.25286 -4.87489 5.12339 1.48806 
-6.23489 5.52056 1.77871 -7.7803 5.63704 2.17252 -9.1745 5.45749 2.56678 
-10.9212 -1.27378 -1.88247 -10.8064 -1.8802 -2.1356 -12.0668 -2.19365 -1.88983 
-10.7985 -2.63992 -2.38387 -12.051 -2.86421 -2.09397 -13.3713 -3.34413 -1.75168 
-10.9731 -3.54671 -2.52377 -12.2014 -3.78928 -2.18136 -13.4917 -4.21887 -1.80506 
-14.9423 -4.93907 -1.59274 -11.3282 -4.55077 -2.51576 -12.551 -4.81134 -2.20267 
-13.8414 -5.3225 -1.78165 -15.31 -6.1176 -1.58182 -16.8227 -7.07608 -1.63068 
-11.7539 -5.5551 -2.40527 -13.0157 -5.7542 -2.20145 -14.383 -6.37321 -1.88245 
-15.8833 -7.38711 -1.66174 -17.3562 -8.51346 -1.73768 -18.6051 -9.54877 -1.89308 
-12.243 -6.38394 -2.18665 -13.5734 -6.642 -2.07829 -14.9827 -7.38363 -2.00459 
-16.5181 -8.63854 -1.91929 -17.9009 -9.97893 -1.96417 -18.9912 -11.0997 -2.14997 
-19.8312 -12.0017 -2.25118 -12.8825 -7.04693 -1.88918 -14.2727 -7.56208 -1.84282 
-15.6061 -8.53872 -1.96587 -17.0069 -10.0048 -2.12076 -18.2861 -11.5372 -2.21176 
-19.2285 -12.7366 -2.3417 -19.9355 -13.6214 -2.48965 -20.5378 -14.3187 -2.51525 
-8.83367 -0.0140285 -1.93716 -7.60347 0.392608 -2.03027 -8.52465 -0.709887 -2.11118 
-6.27781 0.674975 -2.04331 -7.22088 -0.395661 -2.2077 -8.26746 -1.47674 -2.38146 
-4.89793 0.717777 -1.94922 -5.83747 -0.212487 -2.2333 -6.88288 -1.24755 -2.45051 
-8.138 -2.25175 -2.61684 -3.602 0.544592 -1.78892 -4.46112 -0.289058 -2.12604 
-5.51352 -1.23187 -2.41775 -6.71603 -2.16867 -2.5974 -8.28731 -3.23689 -2.67395 
-2.58315 0.24215 -1.53372 -3.32657 -0.597398 -1.90844 -4.33159 -1.50435 -2.24562 
-5.46967 -2.40585 -2.48954 -6.8781 -3.35893 -2.63617 -8.63431 -4.49697 -2.68464 
-1.84654 -0.179107 -1.1555 -2.54345 -1.03744 -1.57832 -3.47782 -1.91621 -1.93877 
-4.55942 -2.81952 -2.23291 -5.77125 -3.70207 -2.49536 -7.25593 -4.66218 -2.69812 
-8.99781 -5.6035 -2.67547 -1.31984 -0.703041 -0.726665 -1.98685 -1.54449 -1.17088 
-2.87053 -2.35314 -1.5449 -3.90634 -3.18704 -1.83655 -5.04517 -4.04326 -2.14185 
-6.2737 -4.88569 -2.4971 -7.7041 -5.67495 -2.67425 -9.44844 -6.28036 -2.47251 
-1.36353 -2.35911 -0.165781 -1.91699 -3.49169 0.00541931 -2.01911 -3.17691 -0.664576 
-2.60092 -4.62968 0.215713 -2.59333 -4.34953 -0.561277 -2.87031 -3.91759 -1.092 
-3.46106 -5.64098 0.459455 -3.32061 -5.51269 -0.355214 -3.50206 -5.11128 -1.00783 
-3.93132 -4.6429 -1.3724 -4.65792 -6.42221 0.670533 -4.32596 -6.46606 -0.0236876 
-4.37006 -6.26775 -0.786754 -4.69601 -5.86422 -1.31572 -5.17684 -5.44666 -1.67789 
[...]
POINT_DATA 1002
FIELD FieldData 4
_paraPhi 1 1002 double
6.2831853072 3.1415926536 6.2831853072 3.1415926536 4.7123889804 4.7123889804 1.5707963268 1.5707963268 3.6951670125 
5.7296109483 2.5880182947 0.5535743589 6.2831853072 6.2831853072 6.2831853072 6.2831853072 3.1415926536 3.1415926536 
3.1415926536 3.1415926536 3.1415926536 6.1053039672 5.898798347 5.6768734901 5.4599499503 5.2659633393 5.1032165617 
4.9713148346 4.8656852733 4.7809517865 0.17788134 0.38438696014 0.60631181711 0.82323535693 1.0172219679 1.1799687454 
1.3118704726 1.4175000338 1.5022335207 6.1892828907 6.1070320098 6.035312792 5.9728339911 5.9183214791 5.8706119594 
5.8286879411 5.7916808611 5.7588591896 0.093902416448 0.17615329733 0.2478725152 0.31035131605 0.36486382811 0.41257334776 
0.45449736604 0.4915044461 0.52432611754 3.3194739936 3.5259796137 3.7479044707 3.9648280105 4.1588146215 4.321561399 
4.4534631262 4.5590926874 4.6438261743 2.9637113136 2.7572056934 2.5352808365 2.3183572967 2.1243706857 1.9616239082 
1.829722181 1.7240926197 1.6393591329 3.23549507 3.3177459509 3.3894651688 3.4519439696 3.5064564817 3.5541660013 
3.5960900196 3.6330970997 3.6659187711 3.0476902371 2.9654393563 2.8937201384 2.8312413375 2.7767288255 2.7290193058 
2.6870952876 2.6500882075 2.617266536 6.2831853072 6.2831853072 6.2831853072 6.2831853072 3.1415926536 3.1415926536 
3.1415926536 3.1415926536 3.1415926536 6.1053039672 5.898798347 5.6768734901 5.4599499503 5.2659633393 5.1032165617 
4.9713148346 4.8656852733 4.7809517865 0.17788134 0.38438696014 0.60631181711 0.82323535693 1.0172219679 1.1799687454 
1.3118704726 1.4175000338 1.5022335207 6.1892828907 6.1070320098 6.035312792 5.9728339911 5.9183214791 5.8706119594 
5.8286879411 5.7916808611 5.7588591896 0.093902416448 0.17615329733 0.2478725152 0.31035131605 0.36486382811 0.41257334776 
0.45449736604 0.4915044461 0.52432611754 3.3194739936 3.5259796137 3.7479044707 3.9648280105 4.1588146215 4.321561399 
4.4534631262 4.5590926874 4.6438261743 2.9637113136 2.7572056934 2.5352808365 2.3183572967 2.1243706857 1.9616239082 
1.829722181 1.7240926197 1.6393591329 3.23549507 3.3177459509 3.3894651688 3.4519439696 3.5064564817 3.5541660013 
3.5960900196 3.6330970997 3.6659187711 3.0476902371 2.9654393563 2.8937201384 2.8312413375 2.7767288255 2.7290193058 
2.6870952876 2.6500882075 2.617266536 4.7123889804 4.7123889804 4.7123889804 4.7123889804 4.7123889804 4.7123889804 
4.7123889804 4.7123889804 4.7123889804 4.6087898617 4.4991390697 4.3857031936 4.2712800401 4.1588146215 4.0509635631 
3.94975894 3.8564636551 3.7716124825 4.8159880991 4.9256388911 5.0390747672 5.1534979207 5.2659633393 5.3738143976 
5.4750190208 5.5683143056 5.6531654782 4.6087898617 4.4991390697 4.3857031936 4.2712800401 4.1588146215 4.0509635631 
3.94975894 3.8564636551 3.7716124825 4.8159880991 4.9256388911 5.0390747672 5.1534979207 5.2659633393 5.3738143976 
5.4750190208 5.5683143056 5.6531654782 1.5707963268 1.5707963268 1.5707963268 1.5707963268 1.5707963268 1.5707963268 
1.5707963268 1.5707963268 1.5707963268 1.6743954455 1.7840462375 1.8974821136 2.0119052671 2.1243706857 2.232221744 
2.3334263672 2.426721652 2.5115728246 1.4671972081 1.3575464161 1.24411054 1.1296873865 1.0172219679 0.90937090954 
0.80816628637 0.71487100155 0.63001982895 1.6743954455 1.7840462375 1.8974821136 2.0119052671 2.1243706857 2.232221744 
2.3334263672 2.426721652 2.5115728246 1.4671972081 1.3575464161 1.24411054 1.1296873865 1.0172219679 0.90937090954 
0.80816628637 0.71487100155 0.63001982895 3.6007720849 3.4966939854 3.3839471039 3.2645756454 3.1415926536 3.0186096618 
2.8992382033 2.7864913217 2.6824132222 5.8240058758 5.9280839753 6.0408308569 6.1602023154 6.2831853072 0.12298299178 
0.2423544503 0.35510133185 0.45917943135 6.0560271438 5.7885595667 5.9702140275 5.5125918794 5.6029703303 5.7885595667 
5.2659633393 5.2659633393 5.2659633393 5.2659633393 5.0674903122 5.0120975802 4.9155579264 4.7123889804 4.1588146215 
4.9155579264 4.8353719722 4.7123889804 4.5092200343 4.1588146215 3.6362183941 4.8004512023 4.7123889804 4.5894059886 
4.4126803806 4.1588146215 3.8218076305 3.4545639333 4.7123889804 4.6243267584 4.5092200343 4.3572876485 4.1588146215 
3.9121860814 3.6362183941 3.368750817 6.0174235957 5.9434319871 5.8263323547 5.8809213739 5.7674481418 5.6279784266 
5.8278025282 5.718968232 5.5891129425 5.4372443565 5.7823484065 5.678536687 5.5575666702 5.4192596322 5.2659633393 
5.743164462 5.6444075337 5.5314983644 5.4046708639 5.2659633393 5.1195510325 5.7091357773 5.6152775188 5.5096229709 
5.3926039573 5.2659633393 5.1329233157 4.9978930058 5.6793730533 5.5901633916 5.4910209005 5.3824597928 5.2659633393 
5.1440684722 5.0201624502 4.8979782167 5.5683143056 5.4750190208 5.4750190208 5.3738143976 5.3738143976 5.3738143976 
5.2659633393 5.2659633393 5.2659633393 5.2659633393 5.1534979207 5.1534979207 5.1534979207 5.1534979207 5.1534979207 
5.0390747672 5.0390747672 5.0390747672 5.0390747672 5.0390747672 5.0390747672 4.9256388911 4.9256388911 4.9256388911 
4.9256388911 4.9256388911 4.9256388911 4.9256388911 4.8159880991 4.8159880991 4.8159880991 4.8159880991 4.8159880991 
4.8159880991 4.8159880991 4.8159880991 4.6087898617 4.6087898617 4.4991390697 4.6087898617 4.4991390697 4.3857031936 
4.6087898617 4.4991390697 4.3857031936 4.2712800401 4.6087898617 4.4991390697 4.3857031936 4.2712800401 4.1588146215 
4.6087898617 4.4991390697 4.3857031936 4.2712800401 4.1588146215 4.0509635631 4.6087898617 4.4991390697 4.3857031936 
4.2712800401 4.1588146215 4.0509635631 3.94975894 4.6087898617 4.4991390697 4.3857031936 4.2712800401 4.1588146215 
4.0509635631 3.94975894 3.8564636551 4.526799744 4.4046155105 4.426884955 4.2807094886 4.2918546451 4.3052269283 
4.1588146215 4.1588146215 4.1588146215 4.1588146215 4.042318168 4.0321740035 4.0201070968 4.0055183285 3.9875336042 
3.9337570603 3.9151549899 3.8932795963 3.8672112905 3.8356650183 3.7967995342 3.8346145692 3.809500442 3.7803704271 
3.7462412737 3.7058097288 3.657329819 3.5984456061 3.7454049075 3.7156421835 3.6816134988 3.6424295543 3.5969754326 
3.5438565869 3.4813459737 3.4073543651 3.5642842451 3.4524645613 3.5233842518 3.3320300872 3.403123212 3.4773852225 
3.20576226 3.2746326772 3.348015857 3.4255060145 3.0774230472 3.1415926536 3.2112816139 3.2864685043 3.3668817272 
2.95115522 3.00855263 3.0719036933 3.1415926536 3.2178377658 3.3005964304 2.8307207459 2.8800620952 2.9351694502 
2.9967168029 3.0653475414 3.1415926536 3.225752376 2.718901062 2.7598010554 2.8058000847 2.8576792927 2.91630358 
2.9825888767 3.0574329311 3.1415926536 3.5642842451 3.5233842518 3.4524645613 3.4773852225 3.403123212 3.3320300872 
3.4255060145 3.348015857 3.2746326772 3.20576226 3.3668817272 3.2864685043 3.2112816139 3.1415926536 3.0774230472 
3.3005964304 3.2178377658 3.1415926536 3.0719036933 3.00855263 2.95115522 3.225752376 3.1415926536 3.0653475414 
2.9967168029 2.9351694502 2.8800620952 2.8307207459 3.1415926536 3.0574329311 2.9825888767 2.91630358 2.8576792927 
2.8058000847 2.7598010554 2.718901062 4.526799744 4.426884955 4.4046155105 4.3052269283 4.2918546451 4.2807094886 
4.1588146215 4.1588146215 4.1588146215 4.1588146215 3.9875336042 4.0055183285 4.0201070968 4.0321740035 4.042318168 
3.7967995342 3.8356650183 3.8672112905 3.8932795963 3.9151549899 3.9337570603 3.5984456061 3.657329819 3.7058097288 
3.7462412737 3.7803704271 3.809500442 3.8346145692 3.4073543651 3.4813459737 3.5438565869 3.5969754326 3.6424295543 
3.6816134988 3.7156421835 3.7454049075 4.7123889804 4.8004512023 4.6243267584 4.9155579264 4.7123889804 4.5092200343 
5.0674903122 4.8353719722 4.5894059886 4.3572876485 5.2659633393 5.0120975802 4.7123889804 4.4126803806 4.1588146215 
5.5125918794 5.2659633393 4.9155579264 4.5092200343 4.1588146215 3.9121860814 5.7885595667 5.6029703303 5.2659633393 
4.7123889804 4.1588146215 3.8218076305 3.6362183941 6.0560271438 5.9702140275 5.7885595667 5.2659633393 4.1588146215 
3.6362183941 3.4545639333 3.368750817 0.22715816343 0.49462574053 0.3129712797 0.77059342779 0.68021497688 0.49462574053 
1.0172219679 1.0172219679 1.0172219679 1.0172219679 1.2156949949 1.271087727 1.3676273807 1.5707963268 2.1243706857 
1.3676273807 1.447813335 1.5707963268 1.7739652728 2.1243706857 2.6469669131 1.4827341049 1.5707963268 1.6937793186 
1.8705049266 2.1243706857 2.4613776767 2.8286213739 1.5707963268 1.6588585487 1.7739652728 1.9258976586 2.1243706857 
2.3709992258 2.6469669131 2.9144344902 1.7563855631 1.8785697967 1.8563003522 2.0024758186 1.9913306621 1.9779583789 
2.1243706857 2.1243706857 2.1243706857 2.1243706857 2.2408671392 2.2510113037 2.2630782103 2.2776669786 2.295651703 
2.3494282469 2.3680303173 2.3899057108 2.4159740166 2.4475202889 2.486385773 2.448570738 2.4736848652 2.5028148801 
2.5369440334 2.5773755784 2.6258554882 2.6847397011 2.5377803997 2.5675431237 2.6015718084 2.6407557529 2.6862098746 
2.7393287203 2.8018393335 2.8758309421 1.6743954455 1.6743954455 1.7840462375 1.6743954455 1.7840462375 1.8974821136 
1.6743954455 1.7840462375 1.8974821136 2.0119052671 1.6743954455 1.7840462375 1.8974821136 2.0119052671 2.1243706857 
1.6743954455 1.7840462375 1.8974821136 2.0119052671 2.1243706857 2.232221744 1.6743954455 1.7840462375 1.8974821136 
2.0119052671 2.1243706857 2.232221744 2.3334263672 1.6743954455 1.7840462375 1.8974821136 2.0119052671 2.1243706857 
2.232221744 2.3334263672 2.426721652 1.4671972081 1.3575464161 1.4671972081 1.24411054 1.3575464161 1.4671972081 
1.1296873865 1.24411054 1.3575464161 1.4671972081 1.0172219679 1.1296873865 1.24411054 1.3575464161 1.4671972081 
0.90937090954 1.0172219679 1.1296873865 1.24411054 1.3575464161 1.4671972081 0.80816628637 0.90937090954 1.0172219679 
1.1296873865 1.24411054 1.3575464161 1.4671972081 0.71487100155 0.80816628637 0.90937090954 1.0172219679 1.1296873865 
1.24411054 1.3575464161 1.4671972081 0.60381225391 0.57404952988 0.69302191562 0.54002084522 0.66790778838 0.79216440667 
0.50083690068 0.63877777351 0.77356233629 0.90072551443 0.45538277901 0.60464862014 0.75168694275 0.89058134991 1.0172219679 
0.40226393329 0.56421707518 0.72561863695 0.87851444325 1.0172219679 1.139116835 0.33975332011 0.51573716537 0.69407236469 
0.86392567495 1.0172219679 1.1502619915 1.2630228569 0.26576171152 0.45685295248 0.6552068806 0.84594095064 1.0172219679 
1.1636342747 1.2852923014 1.3852070904 0.22715816343 0.3129712797 0.49462574053 0.49462574053 0.68021497688 0.77059342779 
1.0172219679 1.0172219679 1.0172219679 1.0172219679 2.1243706857 1.5707963268 1.3676273807 1.271087727 1.2156949949 
2.6469669131 2.1243706857 1.7739652728 1.5707963268 1.447813335 1.3676273807 2.8286213739 2.4613776767 2.1243706857 
1.8705049266 1.6937793186 1.5707963268 1.4827341049 2.9144344902 2.6469669131 2.3709992258 2.1243706857 1.9258976586 
1.7739652728 1.6588585487 1.5707963268 1.7563855631 1.8563003522 1.8785697967 1.9779583789 1.9913306621 2.0024758186 
2.1243706857 2.1243706857 2.1243706857 2.1243706857 2.295651703 2.2776669786 2.2630782103 2.2510113037 2.2408671392 
2.486385773 2.4475202889 2.4159740166 2.3899057108 2.3680303173 2.3494282469 2.6847397011 2.6258554882 2.5773755784 
2.5369440334 2.5028148801 2.4736848652 2.448570738 2.8758309421 2.8018393335 2.7393287203 2.6862098746 2.6407557529 
2.6015718084 2.5675431237 2.5377803997 5.8604937156 5.901393709 5.9723133995 5.9473927383 6.0216547488 6.0927478736 
5.9992719463 6.0767621038 6.1501452836 6.2190157008 6.0578962336 6.1383094565 6.2134963469 0 0.064169606361 
6.1241815303 6.206940195 6.2831853072 0.069688960264 0.13304002361 0.19043743361 6.1990255847 0 0.07624511221 
0.14487585072 0.20642320337 0.26153055843 0.3108719077 0 0.084159722458 0.15900377685 0.22528907359 0.28391336087 
0.3357925689 0.38179159818 0.42269159155 5.8604937156 5.9723133995 5.901393709 6.0927478736 6.0216547488 5.9473927383 
6.2190157008 6.1501452836 6.0767621038 5.9992719463 0.064169606361 0 6.2134963469 6.1383094565 6.0578962336 
0.19043743361 0.13304002361 0.069688960264 6.2831853072 6.206940195 6.1241815303 0.3108719077 0.26153055843 0.20642320337 
0.14487585072 0.07624511221 6.2831853072 6.1990255847 0.42269159155 0.38179159818 0.3357925689 0.28391336087 0.22528907359 
0.15900377685 0.084159722458 0 5.6793730533 5.7091357773 5.5901633916 5.743164462 5.6152775188 5.4910209005 
5.7823484065 5.6444075337 5.5096229709 5.3824597928 5.8278025282 5.678536687 5.5314983644 5.3926039573 5.2659633393 
5.8809213739 5.718968232 5.5575666702 5.4046708639 5.2659633393 5.1440684722 5.9434319871 5.7674481418 5.5891129425 
5.4192596322 5.2659633393 5.1329233157 5.0201624502 6.0174235957 5.8263323547 5.6279784266 5.4372443565 5.2659633393 
5.1195510325 4.9978930058 4.8979782167 1.3852070904 1.2852923014 1.2630228569 1.1636342747 1.1502619915 1.139116835 
1.0172219679 1.0172219679 1.0172219679 1.0172219679 0.84594095064 0.86392567495 0.87851444325 0.89058134991 0.90072551443 
0.6552068806 0.69407236469 0.72561863695 0.75168694275 0.77356233629 0.79216440667 0.45685295248 0.51573716537 0.56421707518 
0.60464862014 0.63877777351 0.66790778838 0.69302191562 0.26576171152 0.33975332011 0.40226393329 0.45538277901 0.50083690068 
0.54002084522 0.57404952988 0.60381225391 
_paraPhiHalf 1 1002 double
0 3.1415926536 0 3.1415926536 1.5707963268 1.5707963268 1.5707963268 1.5707963268 2.5880182947 
0.5535743589 2.5880182947 0.5535743589 0 0 0 0 3.1415926536 3.1415926536 
3.1415926536 3.1415926536 3.1415926536 0.17788134 0.38438696014 0.60631181711 0.82323535693 1.0172219679 1.1799687454 
1.3118704726 1.4175000338 1.5022335207 0.17788134 0.38438696014 0.60631181711 0.82323535693 1.0172219679 1.1799687454 
1.3118704726 1.4175000338 1.5022335207 0.093902416448 0.17615329733 0.2478725152 0.31035131605 0.36486382811 0.41257334776 
0.45449736604 0.4915044461 0.52432611754 0.093902416448 0.17615329733 0.2478725152 0.31035131605 0.36486382811 0.41257334776 
0.45449736604 0.4915044461 0.52432611754 2.9637113136 2.7572056934 2.5352808365 2.3183572967 2.1243706857 1.9616239082 
1.829722181 1.7240926197 1.6393591329 2.9637113136 2.7572056934 2.5352808365 2.3183572967 2.1243706857 1.9616239082 
1.829722181 1.7240926197 1.6393591329 3.0476902371 2.9654393563 2.8937201384 2.8312413375 2.7767288255 2.7290193058 
2.6870952876 2.6500882075 2.617266536 3.0476902371 2.9654393563 2.8937201384 2.8312413375 2.7767288255 2.7290193058 
2.6870952876 2.6500882075 2.617266536 0 0 0 0 3.1415926536 3.1415926536 
3.1415926536 3.1415926536 3.1415926536 0.17788134 0.38438696014 0.60631181711 0.82323535693 1.0172219679 1.1799687454 
1.3118704726 1.4175000338 1.5022335207 0.17788134 0.38438696014 0.60631181711 0.82323535693 1.0172219679 1.1799687454 
1.3118704726 1.4175000338 1.5022335207 0.093902416448 0.17615329733 0.2478725152 0.31035131605 0.36486382811 0.41257334776 
0.45449736604 0.4915044461 0.52432611754 0.093902416448 0.17615329733 0.2478725152 0.31035131605 0.36486382811 0.41257334776 
0.45449736604 0.4915044461 0.52432611754 2.9637113136 2.7572056934 2.5352808365 2.3183572967 2.1243706857 1.9616239082 
1.829722181 1.7240926197 1.6393591329 2.9637113136 2.7572056934 2.5352808365 2.3183572967 2.1243706857 1.9616239082 
1.829722181 1.7240926197 1.6393591329 3.0476902371 2.9654393563 2.8937201384 2.8312413375 2.7767288255 2.7290193058 
2.6870952876 2.6500882075 2.617266536 3.0476902371 2.9654393563 2.8937201384 2.8312413375 2.7767288255 2.7290193058 
2.6870952876 2.6500882075 2.617266536 1.5707963268 1.5707963268 1.5707963268 1.5707963268 1.5707963268 1.5707963268 
1.5707963268 1.5707963268 1.5707963268 1.6743954455 1.7840462375 1.8974821136 2.0119052671 2.1243706857 2.232221744 
2.3334263672 2.426721652 2.5115728246 1.4671972081 1.3575464161 1.24411054 1.1296873865 1.0172219679 0.90937090954 
0.80816628637 0.71487100155 0.63001982895 1.6743954455 1.7840462375 1.8974821136 2.0119052671 2.1243706857 2.232221744 
2.3334263672 2.426721652 2.5115728246 1.4671972081 1.3575464161 1.24411054 1.1296873865 1.0172219679 0.90937090954 
0.80816628637 0.71487100155 0.63001982895 1.5707963268 1.5707963268 1.5707963268 1.5707963268 1.5707963268 1.5707963268 
1.5707963268 1.5707963268 1.5707963268 1.6743954455 1.7840462375 1.8974821136 2.0119052671 2.1243706857 2.232221744 
2.3334263672 2.426721652 2.5115728246 1.4671972081 1.3575464161 1.24411054 1.1296873865 1.0172219679 0.90937090954 
0.80816628637 0.71487100155 0.63001982895 1.6743954455 1.7840462375 1.8974821136 2.0119052671 2.1243706857 2.232221744 
2.3334263672 2.426721652 2.5115728246 1.4671972081 1.3575464161 1.24411054 1.1296873865 1.0172219679 0.90937090954 
0.80816628637 0.71487100155 0.63001982895 2.6824132222 2.7864913217 2.8992382033 3.0186096618 3.1415926536 3.0186096618 
2.8992382033 2.7864913217 2.6824132222 0.45917943135 0.35510133185 0.2423544503 0.12298299178 0 0.12298299178 
0.2423544503 0.35510133185 0.45917943135 0.22715816343 0.49462574053 0.3129712797 0.77059342779 0.68021497688 0.49462574053 
1.0172219679 1.0172219679 1.0172219679 1.0172219679 1.2156949949 1.271087727 1.3676273807 1.5707963268 2.1243706857 
1.3676273807 1.447813335 1.5707963268 1.7739652728 2.1243706857 2.6469669131 1.4827341049 1.5707963268 1.6937793186 
1.8705049266 2.1243706857 2.4613776767 2.8286213739 1.5707963268 1.6588585487 1.7739652728 1.9258976586 2.1243706857 
2.3709992258 2.6469669131 2.9144344902 0.26576171152 0.33975332011 0.45685295248 0.40226393329 0.51573716537 0.6552068806 
0.45538277901 0.56421707518 0.69407236469 0.84594095064 0.50083690068 0.60464862014 0.72561863695 0.86392567495 1.0172219679 
0.54002084522 0.63877777351 0.75168694275 0.87851444325 1.0172219679 1.1636342747 0.57404952988 0.66790778838 0.77356233629 
0.89058134991 1.0172219679 1.1502619915 1.2852923014 0.60381225391 0.69302191562 0.79216440667 0.90072551443 1.0172219679 
1.139116835 1.2630228569 1.3852070904 0.71487100155 0.80816628637 0.80816628637 0.90937090954 0.90937090954 0.90937090954 
1.0172219679 1.0172219679 1.0172219679 1.0172219679 1.1296873865 1.1296873865 1.1296873865 1.1296873865 1.1296873865 
1.24411054 1.24411054 1.24411054 1.24411054 1.24411054 1.24411054 1.3575464161 1.3575464161 1.3575464161 
1.3575464161 1.3575464161 1.3575464161 1.3575464161 1.4671972081 1.4671972081 1.4671972081 1.4671972081 1.4671972081 
1.4671972081 1.4671972081 1.4671972081 1.6743954455 1.6743954455 1.7840462375 1.6743954455 1.7840462375 1.8974821136 
1.6743954455 1.7840462375 1.8974821136 2.0119052671 1.6743954455 1.7840462375 1.8974821136 2.0119052671 2.1243706857 
1.6743954455 1.7840462375 1.8974821136 2.0119052671 2.1243706857 2.232221744 1.6743954455 1.7840462375 1.8974821136 
2.0119052671 2.1243706857 2.232221744 2.3334263672 1.6743954455 1.7840462375 1.8974821136 2.0119052671 2.1243706857 
2.232221744 2.3334263672 2.426721652 1.7563855631 1.8785697967 1.8563003522 2.0024758186 1.9913306621 1.9779583789 
2.1243706857 2.1243706857 2.1243706857 2.1243706857 2.2408671392 2.2510113037 2.2630782103 2.2776669786 2.295651703 
2.3494282469 2.3680303173 2.3899057108 2.4159740166 2.4475202889 2.486385773 2.448570738 2.4736848652 2.5028148801 
2.5369440334 2.5773755784 2.6258554882 2.6847397011 2.5377803997 2.5675431237 2.6015718084 2.6407557529 2.6862098746 
2.7393287203 2.8018393335 2.8758309421 2.718901062 2.8307207459 2.7598010554 2.95115522 2.8800620952 2.8058000847 
3.0774230472 3.00855263 2.9351694502 2.8576792927 3.0774230472 3.1415926536 3.0719036933 2.9967168029 2.91630358 
2.95115522 3.00855263 3.0719036933 3.1415926536 3.0653475414 2.9825888767 2.8307207459 2.8800620952 2.9351694502 
2.9967168029 3.0653475414 3.1415926536 3.0574329311 2.718901062 2.7598010554 2.8058000847 2.8576792927 2.91630358 
2.9825888767 3.0574329311 3.1415926536 2.718901062 2.7598010554 2.8307207459 2.8058000847 2.8800620952 2.95115522 
2.8576792927 2.9351694502 3.00855263 3.0774230472 2.91630358 2.9967168029 3.0719036933 3.1415926536 3.0774230472 
2.9825888767 3.0653475414 3.1415926536 3.0719036933 3.00855263 2.95115522 3.0574329311 3.1415926536 3.0653475414 