# vtk DataFile Version 5.1
vtk output
ASCII
DATASET POLYDATA
POINTS 1002 float
-11.0834 -0.438237 -1.85149 -22.4916 -18.8023 -4.04041 -8.90733 -3.29619 4.41674 
-20.8523 -19.5443 0.571785 -12.5414 -8.36308 -2.98408 -12.6057 -9.77913 0.439348 
-20.7389 -6.31389 0.223828 -20.3109 -7.41453 4.08151 -18.3116 -31.7629 -4.65615 
-0.829294 -0.512704 0.0360217 -25.4285 -25.5321 -1.94019 -11.137 4.86999 3.53461 
-12.0223 -1.37666 -1.95812 -13.109 -2.50227 -2.03866 -14.326 -3.77801 -2.11084 
-15.6941 -5.27724 -2.17656 -17.245 -7.20933 -2.29053 -18.8815 -9.57531 -2.58361 
-20.3421 -12.084 -3.03783 -21.4077 -14.5061 -3.46808 -22.0782 -16.7646 -3.78538 
-10.7709 -0.944696 -2.07657 -10.4917 -1.52674 -2.31397 -10.2714 -2.12513 -2.65397 
-10.1161 -2.85219 -3.01239 -10.1066 -3.81658 -3.24987 -10.28 -4.84749 -3.44817 
-10.5592 -5.77833 -3.61562 -10.9912 -6.65765 -3.55738 -11.6783 -7.52426 -3.27871 
-11.9468 -0.587199 -1.63038 -12.867 -0.882007 -1.33868 -13.9018 -1.27461 -1.06181 
-15.0138 -1.74828 -0.802794 -16.0836 -2.37372 -0.502483 -17.1337 -3.14445 -0.241483 
-18.195 -3.96731 -0.0958157 -19.1653 -4.79301 0.0129585 -20.0016 -5.58583 0.130943 
-9.97261 0.113243 -1.86973 -8.77208 0.656102 -1.89564 -7.4967 1.20217 -1.94936 
-6.09039 1.6128 -1.95735 -4.59596 1.74059 -1.86257 -3.28768 1.64221 -1.68867 
-2.32974 1.35802 -1.39035 -1.61139 0.833318 -0.929227 -1.08236 0.155057 -0.415819 
-10.7652 0.352771 -1.57372 -10.4844 1.14176 -1.21307 -10.2519 1.93295 -0.822924 
-10.1275 2.68301 -0.373905 -10.1333 3.36747 0.192804 -10.2293 3.98595 0.773236 
-10.4235 4.46704 1.32102 -10.7061 4.76148 1.98316 -10.9721 4.88986 2.77723 
-22.0511 -18.4918 -4.12378 -21.5289 -17.9874 -4.1774 -20.8878 -17.2459 -4.1546 
-20.1067 -16.2304 -4.05433 -19.2263 -14.9418 -3.85637 -18.2282 -13.4071 -3.50167 
-16.973 -11.7447 -3.12019 -15.4612 -10.225 -2.93901 -13.9186 -9.08569 -2.94683 
-22.6742 -17.7666 -3.78863 -22.7968 -16.5613 -3.4898 -22.8143 -15.1786 -3.12163 
-22.6965 -13.6835 -2.69244 -22.4777 -12.2187 -2.21297 -22.1956 -10.8621 -1.68275 
-21.8382 -9.5827 -1.14587 -21.4374 -8.36734 -0.655249 -21.0656 -7.26353 -0.207489 
-22.5207 -20.6643 -4.36692 -22.426 -22.6741 -4.74714 -22.1327 -24.7778 -5.11479 
-21.6071 -26.8991 -5.41226 -20.9582 -28.8405 -5.69626 -20.2865 -30.396 -5.95511 
-19.5879 -31.5356 -5.99077 -18.9496 -32.2006 -5.7074 -18.5202 -32.2542 -5.22058 
-22.9485 -20.1162 -4.14842 -23.3942 -21.4 -4.24792 -23.8 -22.6761 -4.28526 
-24.1599 -23.9203 -4.23823 -24.4739 -24.9553 -4.11565 -24.7364 -25.6269 -3.8918 
-24.9904 -25.9644 -3.52296 -25.2433 -26.0415 -3.02641 -25.404 -25.8829 -2.47611 
-9.88468 -4.14206 4.36806 -11.0482 -5.10533 4.27038 -12.4927 -6.18586 4.07558 
-14.1893 -7.48821 3.73234 -15.8748 -9.1331 3.30107 -17.3682 -11.056 2.75871 
-18.6916 -13.1203 2.02339 -19.7696 -15.2802 1.29763 -20.4746 -17.4685 0.830004 
-8.76295 -3.88767 4.13393 -8.70395 -4.56821 3.81464 -8.77155 -5.24313 3.39793 
-8.93663 -5.86408 2.91428 -9.20983 -6.50664 2.45814 -9.66042 -7.21774 2.0375 
-10.2949 -7.91991 1.61756 -11.0454 -8.56026 1.20516 -11.8361 -9.17002 0.810754 
-9.65177 -3.2971 4.7139 -10.4961 -3.4188 5.02555 -11.5735 -3.67124 5.24219 
-12.947 -4.03994 5.3132 -14.485 -4.52657 5.30729 -16.0367 -5.13572 5.26255 
-17.4827 -5.7861 5.13418 -18.6637 -6.36806 4.88124 -19.5572 -6.8871 4.50818 
-7.8571 -2.85334 4.2357 -6.76113 -2.41987 3.98325 -5.72472 -1.98344 3.63247 
-4.73799 -1.55959 3.20094 -3.72551 -1.1702 2.77214 -2.75851 -0.842517 2.37011 
-1.92863 -0.621986 1.88895 -1.26312 -0.519476 1.27958 -0.868758 -0.495684 0.632845 
-8.45317 -2.44873 4.59024 -8.0189 -1.48809 4.71704 -7.68003 -0.307179 4.81353 
-7.5743 1.09104 4.8881 -7.74173 2.45118 4.85405 -8.12339 3.52969 4.70623 
-8.75197 4.32149 4.56872 -9.61269 4.82961 4.40452 -10.4784 4.99454 4.05744 
-20.418 -18.9557 0.488458 -19.9303 -18.1744 0.422464 -19.3058 -17.252 0.429593 
-18.5512 -16.2083 0.503208 -17.7561 -15.0048 0.589548 -16.8841 -13.6857 0.662633 
-15.8752 -12.4132 0.706409 -14.7966 -11.319 0.690345 -13.7022 -10.4439 0.597845 
-21.1055 -18.7124 0.77379 -21.304 -17.7219 1.01494 -21.44 -16.6626 1.37618 
-21.5378 -15.5004 1.80641 -21.5471 -14.0969 2.19868 -21.4441 -12.5606 2.62696 
-21.2787 -11.1497 3.13002 -21.0196 -9.87494 3.55534 -20.6584 -8.62467 3.84544 
-20.8019 -21.2923 0.274564 -20.6787 -23.1863 -0.0965523 -20.4647 -25.176 -0.449852 
-20.0709 -27.0694 -0.781559 -19.5839 -28.6783 -1.27949 -19.2071 -29.934 -1.9724 
-18.8943 -30.8176 -2.70145 -18.548 -31.3964 -3.4272 -18.3079 -31.7309 -4.12109 
-21.2882 -21.0906 0.472749 -21.7565 -22.6166 0.333769 -22.231 -24.0242 0.182807 
-22.7245 -25.1785 0.00956373 -23.3075 -25.9519 -0.268154 -23.9053 -26.3596 -0.617252 
-24.3819 -26.4733 -0.935244 -24.7726 -26.3281 -1.24144 -25.1365 -25.9931 -1.58567 
-12.3167 -8.54926 -2.80428 -12.1108 -8.78138 -2.5748 -11.9579 -9.08439 -2.33365 
-11.8746 -9.41572 -2.05406 -11.8237 -9.66943 -1.67172 -11.8345 -9.77789 -1.21827 
-11.9638 -9.79068 -0.769735 -12.17 -9.79149 -0.337474 -12.3901 -9.79453 0.0752127 
-14.3116 -9.83877 -2.83045 -15.9828 -12.0423 -2.95772 -17.192 -14.9081 -3.29293 
-17.9548 -18.1181 -3.65932 -18.4694 -21.3099 -3.97292 -18.7588 -24.2201 -4.20037 
-18.8144 -26.7509 -4.34834 -18.6906 -28.899 -4.50283 -18.4693 -30.595 -4.65112 
-10.7077 -7.50187 -3.19701 -8.95112 -6.92422 -3.38275 -7.30377 -6.36612 -3.35807 
-5.78152 -5.61858 -3.02498 -4.50813 -4.69786 -2.50935 -3.48507 -3.76115 -2.01484 
-2.55024 -2.88906 -1.54589 -1.69997 -2.05264 -1.02558 -1.09592 -1.24582 -0.481199 
-14.0378 -10.9567 0.165581 -15.4017 -12.6579 -0.218686 -16.5243 -14.9313 -0.760312 
-17.3422 -17.6688 -1.35425 -17.9225 -20.6377 -1.82151 -18.2368 -23.5352 -2.20385 
-18.2676 -26.1274 -2.71561 -18.2202 -28.3746 -3.39326 -18.2434 -30.281 -4.07821 
-10.9182 -8.93649 0.462804 -9.02555 -8.29126 0.484764 -7.1157 -7.73812 0.517985 
-5.38062 -7.12093 0.547256 -3.93423 -6.35635 0.554429 -2.82197 -5.37453 0.494263 
-1.99481 -4.14418 0.357098 -1.36151 -2.82982 0.220775 -0.946498 -1.61284 0.126936 
-20.9639 -6.2082 0.556732 -21.1636 -6.11371 0.941571 -21.3576 -6.02724 1.39309 
-21.5224 -5.95546 1.95322 -21.5678 -5.94946 2.62188 -21.4752 -6.05645 3.23835 
-21.2735 -6.28261 3.62727 -20.9638 -6.61441 3.82172 -20.6121 -7.01325 3.95516 
-21.6718 -7.66821 0.0156984 -22.6596 -9.2946 -0.212293 -23.6317 -11.1557 -0.465317 
-24.5628 -13.0647 -0.799721 -25.4186 -14.9746 -1.21914 -26.0227 -17.2094 -1.59858 
-26.2151 -19.8272 -1.83468 -26.0722 -22.2678 -1.94119 -25.7747 -24.1285 -1.96416 
-19.9579 -4.99638 0.633643 -19.0812 -3.62884 1.06547 -18.1224 -2.19393 1.45468 
-17.1529 -0.76614 1.80945 -16.1641 0.542784 2.1881 -15.0808 1.7134 2.53685 
-13.9825 2.74392 2.78182 -12.9971 3.61101 3.00137 -12.0834 4.32351 3.27236 
-21.3432 -8.84698 3.51235 -22.5349 -10.6186 2.9523 -23.6431 -12.5957 2.3286 
-24.5329 -14.5914 1.61153 -25.3011 -16.585 0.996049 -25.8787 -18.6691 0.537357 
-26.0438 -20.772 -0.02271 -25.8724 -22.6646 -0.738517 -25.6307 -24.231 -1.40374 
-19.5885 -5.90075 4.59884 -18.8941 -4.35207 5.0612 -18.0472 -2.75383 5.30388 
-16.9069 -1.11158 5.34441 -15.6608 0.505526 5.32816 -14.5813 1.93312 5.23754 
-13.6406 3.0262 4.96464 -12.7307 3.81947 4.54385 -11.8862 4.42292 4.06089 
-18.4181 -32.9543 -4.83569 -18.9011 -33.8132 -4.79243 -19.9556 -34.2444 -4.52502 
-21.2973 -34.0296 -4.17304 -22.3562 -33.1125 -3.85737 -23.1017 -31.8646 -3.5274 
-23.8482 -30.4974 -3.09847 -24.5511 -28.8888 -2.63352 -25.0588 -27.1481 -2.24449 
-0.941371 0.61166 0.284013 -1.39744 1.77994 0.552669 -2.16932 2.87267 0.855573 
-3.0943 3.82384 1.17222 -4.09938 4.62529 1.47559 -5.38538 5.21338 1.82299 
-6.99938 5.5222 2.29508 -8.61913 5.54813 2.82681 -9.99776 5.30888 3.26194 
-11.8178 -1.95329 -2.20711 -11.6187 -2.54855 -2.50289 -13.0167 -3.10177 -2.3467 
-11.4657 -3.1824 -2.85748 -12.9117 -3.69691 -2.68325 -14.3718 -4.41325 -2.43481 
-11.4724 -4.05043 -3.11987 -12.9056 -4.47077 -2.94015 -14.4636 -5.18115 -2.69338 
-15.9517 -6.14922 -2.43671 -11.7058 -5.09215 -3.26232 -13.1658 -5.53483 -3.03513 
-14.7368 -6.28827 -2.79858 -16.3464 -7.34929 -2.61252 -17.7333 -8.5093 -2.55063 
-12.0494 -6.05047 -3.37386 -13.6502 -6.61881 -3.0879 -15.2526 -7.5666 -2.85769 
-16.8709 -8.82126 -2.75671 -18.3183 -10.1066 -2.82136 -19.446 -11.1983 -2.95676 
-12.4777 -6.98338 -3.34602 -14.1979 -7.67471 -3.10513 -15.8816 -8.81452 -2.98171 
-17.422 -10.2833 -3.00511 -18.8068 -11.752 -3.15395 -19.921 -12.9349 -3.35325 
-20.7534 -13.8153 -3.46846 -13.1166 -8.01967 -3.14243 -14.8065 -8.90787 -3.01303 
-16.4809 -10.2185 -3.06842 -17.901 -11.7878 -3.29756 -19.0967 -13.3341 -3.54057 
-20.1252 -14.6178 -3.73584 -20.9425 -15.5651 -3.85122 -21.5699 -16.2544 -3.8523 
-9.55209 -0.420248 -2.10814 -8.27478 0.104089 -2.19211 -9.21971 -1.02122 -2.41148 
-6.91907 0.57087 -2.26418 -7.88209 -0.559642 -2.55143 -8.9494 -1.69934 -2.8001 
-5.43439 0.79645 -2.1871 -6.45261 -0.28195 -2.53899 -7.5269 -1.41478 -2.86128 
-8.72577 -2.5954 -3.09995 -3.9882 0.726803 -2.00725 -5.0004 -0.302432 -2.32699 
-6.11886 -1.39114 -2.67697 -7.30515 -2.5191 -3.01805 -8.71368 -3.70555 -3.29981 
-2.85451 0.454102 -1.79389 -3.73053 -0.550135 -2.11907 -4.86212 -1.60181 -2.41972 
-6.07631 -2.66594 -2.78984 -7.43397 -3.75761 -3.22388 -8.95788 -4.82723 -3.56191 
-2.04296 -0.0115188 -1.44104 -2.77414 -0.954065 -1.88825 -3.80054 -1.94454 -2.23775 
-5.00832 -2.96335 -2.59122 -6.35212 -3.99101 -3.06425 -7.8189 -4.98095 -3.5276 
-9.34477 -5.84734 -3.72131 -1.44791 -0.623479 -0.955305 -2.11194 -1.48578 -1.49276 
-3.01723 -2.38758 -1.95966 -4.08421 -3.33827 -2.36897 -5.32886 -4.33114 -2.84308 
-6.7721 -5.27721 -3.33624 -8.30464 -6.06966 -3.61403 -9.91028 -6.73993 -3.55686 
-1.35753 -2.43094 -0.431144 -1.90088 -3.74078 -0.38022 -2.1388 -3.29875 -1.00469 
-2.57894 -5.11824 -0.270376 -2.7572 -4.66615 -0.983225 -3.08536 -4.17728 -1.53816 
-3.42485 -6.33847 -0.110309 -3.41006 -6.05109 -0.896848 -3.70443 -5.57081 -1.55052 
-4.02331 -5.09688 -2.06853 -4.69998 -7.24447 0.0222587 -4.34647 -7.20465 -0.727253 
-4.43798 -6.9045 -1.50891 -4.72412 -6.46789 -2.145 -5.12135 -6.03137 -2.64166 
[...]
POINT_DATA 1002
FIELD FieldData 4
_paraPhi 1 1002 double
6.2831853072 3.1415926536 6.2831853072 3.1415926536 4.7123889804 4.7123889804 1.5707963268 1.5707963268 3.6951670125 
5.7296109483 2.5880182947 0.5535743589 6.2831853072 6.2831853072 6.2831853072 6.2831853072 3.1415926536 3.1415926536 
3.1415926536 3.1415926536 3.1415926536 6.1053039672 5.898798347 5.6768734901 5.4599499503 5.2659633393 5.1032165617 
4.9713148346 4.8656852733 4.7809517865 0.17788134 0.38438696014 0.60631181711 0.82323535693 1.0172219679 1.1799687454 
1.3118704726 1.4175000338 1.5022335207 6.1892828907 6.1070320098 6.035312792 5.9728339911 5.9183214791 5.8706119594 
5.8286879411 5.7916808611 5.7588591896 0.093902416448 0.17615329733 0.2478725152 0.31035131605 0.36486382811 0.41257334776 
0.45449736604 0.4915044461 0.52432611754 3.3194739936 3.5259796137 3.7479044707 3.9648280105 4.1588146215 4.321561399 
4.4534631262 4.5590926874 4.6438261743 2.9637113136 2.7572056934 2.5352808365 2.3183572967 2.1243706857 1.9616239082 
1.829722181 1.7240926197 1.6393591329 3.23549507 3.3177459509 3.3894651688 3.4519439696 3.5064564817 3.5541660013 
3.5960900196 3.6330970997 3.6659187711 3.0476902371 2.9654393563 2.8937201384 2.8312413375 2.7767288255 2.7290193058 
2.6870952876 2.6500882075 2.617266536 6.2831853072 6.2831853072 6.2831853072 6.2831853072 3.1415926536 3.1415926536 
3.1415926536 3.1415926536 3.1415926536 6.1053039672 5.898798347 5.6768734901 5.4599499503 5.2659633393 5.1032165617 
4.9713148346 4.8656852733 4.7809517865 0.17788134 0.38438696014 0.60631181711 0.82323535693 1.0172219679 1.1799687454 
1.3118704726 1.4175000338 1.5022335207 6.1892828907 6.1070320098 6.035312792 5.9728339911 5.9183214791 5.8706119594 
5.8286879411 5.7916808611 5.7588591896 0.093902416448 0.17615329733 0.2478725152 0.31035131605 0.36486382811 0.41257334776 
0.45449736604 0.4915044461 0.52432611754 3.3194739936 3.5259796137 3.7479044707 3.9648280105 4.1588146215 4.321561399 
4.4534631262 4.5590926874 4.6438261743 2.9637113136 2.7572056934 2.5352808365 2.3183572967 2.1243706857 1.9616239082 
1.829722181 1.7240926197 1.6393591329 3.23549507 3.3177459509 3.3894651688 3.4519439696 3.5064564817 3.5541660013 
3.5960900196 3.6330970997 3.6659187711 3.0476902371 2.9654393563 2.8937201384 2.8312413375 2.7767288255 2.7290193058 
2.6870952876 2.6500882075 2.617266536 4.7123889804 4.7123889804 4.7123889804 4.7123889804 4.7123889804 4.7123889804 
4.7123889804 4.7123889804 4.7123889804 4.6087898617 4.4991390697 4.3857031936 4.2712800401 4.1588146215 4.0509635631 
3.94975894 3.8564636551 3.7716124825 4.8159880991 4.9256388911 5.0390747672 5.1534979207 5.2659633393 5.3738143976 
5.4750190208 5.5683143056 5.6531654782 4.6087898617 4.4991390697 4.3857031936 4.2712800401 4.1588146215 4.0509635631 
3.94975894 3.8564636551 3.7716124825 4.8159880991 4.9256388911 5.0390747672 5.1534979207 5.2659633393 5.3738143976 
5.4750190208 5.5683143056 5.6531654782 1.5707963268 1.5707963268 1.5707963268 1.5707963268 1.5707963268 1.5707963268 
1.5707963268 1.5707963268 1.5707963268 1.6743954455 1.7840462375 1.8974821136 2.0119052671 2.1243706857 2.232221744 
2.3334263672 2.426721652 2.5115728246 1.4671972081 1.3575464161 1.24411054 1.1296873865 1.0172219679 0.90937090954 
0.80816628637 0.71487100155 0.63001982895 1.6743954455 1.7840462375 1.8974821136 2.0119052671 2.1243706857 2.232221744 
2.3334263672 2.426721652 2.5115728246 1.4671972081 1.3575464161 1.24411054 1.1296873865 1.0172219679 0.90937090954 
0.80816628637 0.71487100155 0.63001982895 3.6007720849 3.4966939854 3.3839471039 3.2645756454 3.1415926536 3.0186096618 
2.8992382033 2.7864913217 2.6824132222 5.8240058758 5.9280839753 6.0408308569 6.1602023154 6.2831853072 0.12298299178 
0.2423544503 0.35510133185 0.45917943135 6.0560271438 5.7885595667 5.9702140275 5.5125918794 5.6029703303 5.7885595667 
5.2659633393 5.2659633393 5.2659633393 5.2659633393 5.0674903122 5.0120975802 4.9155579264 4.7123889804 4.1588146215 
4.9155579264 4.8353719722 4.7123889804 4.5092200343 4.1588146215 3.6362183941 4.8004512023 4.7123889804 4.5894059886 
4.4126803806 4.1588146215 3.8218076305 3.4545639333 4.7123889804 4.6243267584 4.5092200343 4.3572876485 4.1588146215 
3.9121860814 3.6362183941 3.368750817 6.0174235957 5.9434319871 5.8263323547 5.8809213739 5.7674481418 5.6279784266 
5.8278025282 5.718968232 5.5891129425 5.4372443565 5.7823484065 5.678536687 5.5575666702 5.4192596322 5.2659633393 
5.743164462 5.6444075337 5.5314983644 5.4046708639 5.2659633393 5.1195510325 5.7091357773 5.6152775188 5.5096229709 
5.3926039573 5.2659633393 5.1329233157 4.9978930058 5.6793730533 5.5901633916 5.4910209005 5.3824597928 5.2659633393 
5.1440684722 5.0201624502 4.8979782167 5.5683143056 5.4750190208 5.4750190208 5.3738143976 5.3738143976 5.3738143976 
5.2659633393 5.2659633393 5.2659633393 5.2659633393 5.1534979207 5.1534979207 5.1534979207 5.1534979207 5.1534979207 
5.0390747672 5.0390747672 5.0390747672 5.0390747672 5.0390747672 5.0390747672 4.9256388911 4.9256388911 4.9256388911 
4.9256388911 4.9256388911 4.9256388911 4.9256388911 4.8159880991 4.8159880991 4.8159880991 4.8159880991 4.8159880991 
4.8159880991 4.8159880991 4.8159880991 4.6087898617 4.6087898617 4.4991390697 4.6087898617 4.4991390697 4.3857031936 
4.6087898617 4.4991390697 4.3857031936 4.2712800401 4.6087898617 4.4991390697 4.3857031936 4.2712800401 4.1588146215 
4.6087898617 4.4991390697 4.3857031936 4.2712800401 4.1588146215 4.0509635631 4.6087898617 4.4991390697 4.3857031936 
4.2712800401 4.1588146215 4.0509635631 3.94975894 4.6087898617 4.4991390697 4.3857031936 4.2712800401 4.1588146215 
4.0509635631 3.94975894 3.8564636551 4.526799744 4.4046155105 4.426884955 4.2807094886 4.2918546451 4.3052269283 
4.1588146215 4.1588146215 4.1588146215 4.1588146215 4.042318168 4.0321740035 4.0201070968 4.0055183285 3.9875336042 
3.9337570603 3.9151549899 3.8932795963 3.8672112905 3.8356650183 3.7967995342 3.8346145692 3.809500442 3.7803704271 
3.7462412737 3.7058097288 3.657329819 3.5984456061 3.7454049075 3.7156421835 3.6816134988 3.6424295543 3.5969754326 
3.5438565869 3.4813459737 3.4073543651 3.5642842451 3.4524645613 3.5233842518 3.3320300872 3.403123212 3.4773852225 
3.20576226 3.2746326772 3.348015857 3.4255060145 3.0774230472 3.1415926536 3.2112816139 3.2864685043 3.3668817272 
2.95115522 3.00855263 3.0719036933 3.1415926536 3.2178377658 3.3005964304 2.8307207459 2.8800620952 2.9351694502 
2.9967168029 3.0653475414 3.1415926536 3.225752376 2.718901062 2.7598010554 2.8058000847 2.8576792927 2.91630358 
2.9825888767 3.0574329311 3.1415926536 3.5642842451 3.5233842518 3.4524645613 3.4773852225 3.403123212 3.3320300872 
3.4255060145 3.348015857 3.2746326772 3.20576226 3.3668817272 3.2864685043 3.2112816139 3.1415926536 3.0774230472 
3.3005964304 3.2178377658 3.1415926536 3.0719036933 3.00855263 2.95115522 3.225752376 3.1415926536 3.0653475414 
2.9967168029 2.9351694502 2.8800620952 2.8307207459 3.1415926536 3.0574329311 2.9825888767 2.91630358 2.8576792927 
2.8058000847 2.7598010554 2.718901062 4.526799744 4.426884955 4.4046155105 4.3052269283 4.2918546451 4.2807094886 
4.1588146215 4.1588146215 4.1588146215 4.1588146215 3.9875336042 4.0055183285 4.0201070968 4.0321740035 4.042318168 
3.7967995342 3.8356650183 3.8672112905 3.8932795963 3.9151549899 3.9337570603 3.5984456061 3.657329819 3.7058097288 
3.7462412737 3.7803704271 3.809500442 3.8346145692 3.4073543651 3.4813459737 3.5438565869 3.5969754326 3.6424295543 
3.6816134988 3.7156421835 3.7454049075 4.7123889804 4.8004512023 4.6243267584 4.9155579264 4.7123889804 4.5092200343 
5.0674903122 4.8353719722 4.5894059886 4.3572876485 5.2659633393 5.0120975802 4.7123889804 4.4126803806 4.1588146215 
5.5125918794 5.2659633393 4.9155579264 4.5092200343 4.1588146215 3.9121860814 5.7885595667 5.6029703303 5.2659633393 
4.7123889804 4.1588146215 3.8218076305 3.6362183941 6.0560271438 5.9702140275 5.7885595667 5.2659633393 4.1588146215 
3.6362183941 3.4545639333 3.368750817 0.22715816343 0.49462574053 0.3129712797 0.77059342779 0.68021497688 0.49462574053 
1.0172219679 1.0172219679 1.0172219679 1.0172219679 1.2156949949 1.271087727 1.3676273807 1.5707963268 2.1243706857 
1.3676273807 1.447813335 1.5707963268 1.7739652728 2.1243706857 2.6469669131 1.4827341049 1.5707963268 1.6937793186 
1.8705049266 2.1243706857 2.4613776767 2.8286213739 1.5707963268 1.6588585487 1.7739652728 1.9258976586 2.1243706857 
2.3709992258 2.6469669131 2.9144344902 1.7563855631 1.8785697967 1.8563003522 2.0024758186 1.9913306621 1.9779583789 
2.1243706857 2.1243706857 2.1243706857 2.1243706857 2.2408671392 2.2510113037 2.2630782103 2.2776669786 2.295651703 
2.3494282469 2.3680303173 2.3899057108 2.4159740166 2.4475202889 2.486385773 2.448570738 2.4736848652 2.5028148801 
2.5369440334 2.5773755784 2.6258554882 2.6847397011 2.5377803997 2.5675431237 2.6015718084 2.6407557529 2.6862098746 
2.7393287203 2.8018393335 2.8758309421 1.6743954455 1.6743954455 1.7840462375 1.6743954455 1.7840462375 1.8974821136 
1.6743954455 1.7840462375 1.8974821136 2.0119052671 1.6743954455 1.7840462375 1.8974821136 2.0119052671 2.1243706857 
1.6743954455 1.7840462375 1.8974821136 2.0119052671 2.1243706857 2.232221744 1.6743954455 1.7840462375 1.8974821136 
2.0119052671 2.1243706857 2.232221744 2.3334263672 1.6743954455 1.7840462375 1.8974821136 2.0119052671 2.1243706857 
2.232221744 2.3334263672 2.426721652 1.4671972081 1.3575464161 1.4671972081 1.24411054 1.3575464161 1.4671972081 
1.1296873865 1.24411054 1.3575464161 1.4671972081 1.0172219679 1.1296873865 1.24411054 1.3575464161 1.4671972081 
0.90937090954 1.0172219679 1.1296873865 1.24411054 1.3575464161 1.4671972081 0.80816628637 0.90937090954 1.0172219679 
1.1296873865 1.24411054 1.3575464161 1.4671972081 0.71487100155 0.80816628637 0.90937090954 1.0172219679 1.1296873865 
1.24411054 1.3575464161 1.4671972081 0.60381225391 0.57404952988 0.69302191562 0.54002084522 0.66790778838 0.79216440667 
0.50083690068 0.63877777351 0.77356233629 0.90072551443 0.45538277901 0.60464862014 0.75168694275 0.89058134991 1.0172219679 
0.40226393329 0.56421707518 0.72561863695 0.87851444325 1.0172219679 1.139116835 0.33975332011 0.51573716537 0.69407236469 
0.86392567495 1.0172219679 1.1502619915 1.2630228569 0.26576171152 0.45685295248 0.6552068806 0.84594095064 1.0172219679 
1.1636342747 1.2852923014 1.3852070904 0.22715816343 0.3129712797 0.49462574053 0.49462574053 0.68021497688 0.77059342779 
1.0172219679 1.0172219679 1.0172219679 1.0172219679 2.1243706857 1.5707963268 1.3676273807 1.271087727 1.2156949949 
2.6469669131 2.1243706857 1.7739652728 1.5707963268 1.447813335 1.3676273807 2.8286213739 2.4613776767 2.1243706857 
1.8705049266 1.6937793186 1.5707963268 1.4827341049 2.9144344902 2.6469669131 2.3709992258 2.1243706857 1.9258976586 
1.7739652728 1.6588585487 1.5707963268 1.7563855631 1.8563003522 1.8785697967 1.9779583789 1.9913306621 2.0024758186 
2.1243706857 2.1243706857 2.1243706857 2.1243706857 2.295651703 2.2776669786 2.2630782103 2.2510113037 2.2408671392 
2.486385773 2.4475202889 2.4159740166 2.3899057108 2.3680303173 2.3494282469 2.6847397011 2.6258554882 2.5773755784 
2.5369440334 2.5028148801 2.4736848652 2.448570738 2.8758309421 2.8018393335 2.7393287203 2.6862098746 2.6407557529 
2.6015718084 2.5675431237 2.5377803997 5.8604937156 5.901393709 5.9723133995 5.9473927383 6.0216547488 6.0927478736 
5.9992719463 6.0767621038 6.1501452836 6.2190157008 6.0578962336 6.1383094565 6.2134963469 0 0.064169606361 
6.1241815303 6.206940195 6.2831853072 0.069688960264 0.13304002361 0.19043743361 6.1990255847 0 0.07624511221 
0.14487585072 0.20642320337 0.26153055843 0.3108719077 0 0.084159722458 0.15900377685 0.22528907359 0.28391336087 
0.3357925689 0.38179159818 0.42269159155 5.8604937156 5.9723133995 5.901393709 6.0927478736 6.0216547488 5.9473927383 
6.2190157008 6.1501452836 6.0767621038 5.9992719463 0.064169606361 0 6.2134963469 6.1383094565 6.0578962336 
0.19043743361 0.13304002361 0.069688960264 6.2831853072 6.206940195 6.1241815303 0.3108719077 0.26153055843 0.20642320337 
0.14487585072 0.07624511221 6.2831853072 6.1990255847 0.42269159155 0.38179159818 0.3357925689 0.28391336087 0.22528907359 
0.15900377685 0.084159722458 0 5.6793730533 5.7091357773 5.5901633916 5.743164462 5.6152775188 5.4910209005 
5.7823484065 5.6444075337 5.5096229709 5.3824597928 5.8278025282 5.678536687 5.5314983644 5.3926039573 5.2659633393 
5.8809213739 5.718968232 5.5575666702 5.4046708639 5.2659633393 5.1440684722 5.9434319871 5.7674481418 5.5891129425 
5.4192596322 5.2659633393 5.1329233157 5.0201624502 6.0174235957 5.8263323547 5.6279784266 5.4372443565 5.2659633393 
5.1195510325 4.9978930058 4.8979782167 1.3852070904 1.2852923014 1.2630228569 1.1636342747 1.1502619915 1.139116835 
1.0172219679 1.0172219679 1.0172219679 1.0172219679 0.84594095064 0.86392567495 0.87851444325 0.89058134991 0.90072551443 
0.6552068806 0.69407236469 0.72561863695 0.75168694275 0.77356233629 0.79216440667 0.45685295248 0.51573716537 0.56421707518 
0.60464862014 0.63877777351 0.66790778838 0.69302191562 0.26576171152 0.33975332011 0.40226393329 0.45538277901 0.50083690068 
0.54002084522 0.57404952988 0.60381225391 
_paraPhiHalf 1 1002 double
0 3.1415926536 0 3.1415926536 1.5707963268 1.5707963268 1.5707963268 1.5707963268 2.5880182947 
0.5535743589 2.5880182947 0.5535743589 0 0 0 0 3.1415926536 3.1415926536 
3.1415926536 3.1415926536 3.1415926536 0.17788134 0.38438696014 0.60631181711 0.82323535693 1.0172219679 1.1799687454 
1.3118704726 1.4175000338 1.5022335207 0.17788134 0.38438696014 0.60631181711 0.82323535693 1.0172219679 1.1799687454 
1.3118704726 1.4175000338 1.5022335207 0.093902416448 0.17615329733 0.2478725152 0.31035131605 0.36486382811 0.41257334776 
0.45449736604 0.4915044461 0.52432611754 0.093902416448 0.17615329733 0.2478725152 0.31035131605 0.36486382811 0.41257334776 
0.45449736604 0.4915044461 0.52432611754 2.9637113136 2.7572056934 2.5352808365 2.3183572967 2.1243706857 1.9616239082 
1.829722181 1.7240926197 1.6393591329 2.9637113136 2.7572056934 2.5352808365 2.3183572967 2.1243706857 1.9616239082 
1.829722181 1.7240926197 1.6393591329 3.0476902371 2.9654393563 2.8937201384 2.8312413375 2.7767288255 2.7290193058 
2.6870952876 2.6500882075 2.617266536 3.0476902371 2.9654393563 2.8937201384 2.8312413375 2.7767288255 2.7290193058 
2.6870952876 2.6500882075 2.617266536 0 0 0 0 3.1415926536 3.1415926536 
3.1415926536 3.1415926536 3.1415926536 0.17788134 0.38438696014 0.60631181711 0.82323535693 1.0172219679 1.1799687454 
1.3118704726 1.4175000338 1.5022335207 0.17788134 0.38438696014 0.60631181711 0.82323535693 1.0172219679 1.1799687454 
1.3118704726 1.4175000338 1.5022335207 0.093902416448 0.17615329733 0.2478725152 0.31035131605 0.36486382811 0.41257334776 
0.45449736604 0.4915044461 0.52432611754 0.093902416448 0.17615329733 0.2478725152 0.31035131605 0.36486382811 0.41257334776 
0.45449736604 0.4915044461 0.52432611754 2.9637113136 2.7572056934 2.5352808365 2.3183572967 2.1243706857 1.9616239082 
1.829722181 1.7240926197 1.6393591329 2.9637113136 2.7572056934 2.5352808365 2.3183572967 2.1243706857 1.9616239082 
1.829722181 1.7240926197 1.6393591329 3.0476902371 2.9654393563 2.8937201384 2.8312413375 2.7767288255 2.7290193058 
2.6870952876 2.6500882075 2.617266536 3.0476902371 2.9654393563 2.8937201384 2.8312413375 2.7767288255 2.7290193058 
2.6870952876 2.6500882075 2.617266536 1.5707963268 1.5707963268 1.5707963268 1.5707963268 1.5707963268 1.5707963268 
1.5707963268 1.5707963268 1.5707963268 1.6743954455 1.7840462375 1.8974821136 2.0119052671 2.1243706857 2.232221744 
2.3334263672 2.426721652 2.5115728246 1.4671972081 1.3575464161 1.24411054 1.1296873865 1.0172219679 0.90937090954 
0.80816628637 0.71487100155 0.63001982895 1.6743954455 1.7840462375 1.8974821136 2.0119052671 2.1243706857 2.232221744 
2.3334263672 2.426721652 2.5115728246 1.4671972081 1.3575464161 1.24411054 1.1296873865 1.0172219679 0.90937090954 
0.80816628637 0.71487100155 0.63001982895 1.5707963268 1.5707963268 1.5707963268 1.5707963268 1.5707963268 1.5707963268 
1.5707963268 1.5707963268 1.5707963268 1.6743954455 1.7840462375 1.8974821136 2.0119052671 2.1243706857 2.232221744 
2.3334263672 2.426721652 2.5115728246 1.4671972081 1.3575464161 1.24411054 1.1296873865 1.0172219679 0.90937090954 
0.80816628637 0.71487100155 0.63001982895 1.6743954455 1.7840462375 1.8974821136 2.0119052671 2.1243706857 2.232221744 
2.3334263672 2.426721652 2.5115728246 1.4671972081 1.3575464161 1.24411054 1.1296873865 1.0172219679 0.90937090954 
0.80816628637 0.71487100155 0.63001982895 2.6824132222 2.7864913217 2.8992382033 3.0186096618 3.1415926536 3.0186096618 
2.8992382033 2.7864913217 2.6824132222 0.45917943135 0.35510133185 0.2423544503 0.12298299178 0 0.12298299178 
0.2423544503 0.35510133185 0.45917943135 0.22715816343 0.49462574053 0.3129712797 0.77059342779 0.68021497688 0.49462574053 
1.0172219679 1.0172219679 1.0172219679 1.0172219679 1.2156949949 1.271087727 1.3676273807 1.5707963268 2.1243706857 
1.3676273807 1.447813335 1.5707963268 1.7739652728 2.1243706857 2.6469669131 1.4827341049 1.5707963268 1.6937793186 
1.8705049266 2.1243706857 2.4613776767 2.8286213739 1.5707963268 1.6588585487 1.7739652728 1.9258976586 2.1243706857 
2.3709992258 2.6469669131 2.9144344902 0.26576171152 0.33975332011 0.45685295248 0.40226393329 0.51573716537 0.6552068806 
0.45538277901 0.56421707518 0.69407236469 0.84594095064 0.50083690068 0.60464862014 0.72561863695 0.86392567495 1.0172219679 
0.54002084522 0.63877777351 0.75168694275 0.87851444325 1.0172219679 1.1636342747 0.57404952988 0.66790778838 0.77356233629 
0.89058134991 1.0172219679 1.1502619915 1.2852923014 0.60381225391 0.69302191562 0.79216440667 0.90072551443 1.0172219679 
1.139116835 1.2630228569 1.3852070904 0.71487100155 0.80816628637 0.80816628637 0.90937090954 0.90937090954 0.90937090954 
1.0172219679 1.0172219679 1.0172219679 1.0172219679 1.1296873865 1.1296873865 1.1296873865 1.1296873865 1.1296873865 
1.24411054 1.24411054 1.24411054 1.24411054 1.24411054 1.24411054 1.3575464161 1.3575464161 1.3575464161 
1.3575464161 1.3575464161 1.3575464161 1.3575464161 1.4671972081 1.4671972081 1.4671972081 1.4671972081 1.4671972081 
1.4671972081 1.4671972081 1.4671972081 1.6743954455 1.6743954455 1.7840462375 1.6743954455 1.7840462375 1.8974821136 
1.6743954455 1.7840462375 1.8974821136 2.0119052671 1.6743954455 1.7840462375 1.8974821136 2.0119052671 2.1243706857 
1.6743954455 1.7840462375 1.8974821136 2.0119052671 2.1243706857 2.232221744 1.6743954455 1.7840462375 1.8974821136 
2.0119052671 2.1243706857 2.232221744 2.3334263672 1.6743954455 1.7840462375 1.8974821136 2.0119052671 2.1243706857 
2.232221744 2.3334263672 2.426721652 1.7563855631 1.8785697967 1.8563003522 2.0024758186 1.9913306621 1.9779583789 
2.1243706857 2.1243706857 2.1243706857 2.1243706857 2.2408671392 2.2510113037 2.2630782103 2.2776669786 2.295651703 
2.3494282469 2.3680303173 2.3899057108 2.4159740166 2.4475202889 2.486385773 2.448570738 2.4736848652 2.5028148801 
2.5369440334 2.5773755784 2.6258554882 2.6847397011 2.5377803997 2.5675431237 2.6015718084 2.6407557529 2.6862098746 
2.7393287203 2.8018393335 2.8758309421 2.718901062 2.8307207459 2.7598010554 2.95115522 2.8800620952 2.8058000847 
3.0774230472 3.00855263 2.9351694502 2.8576792927 3.0774230472 3.1415926536 3.0719036933 2.9967168029 2.91630358 
2.95115522 3.00855263 3.0719036933 3.1415926536 3.0653475414 2.9825888767 2.8307207459 2.8800620952 2.9351694502 
2.9967168029 3.0653475414 3.1415926536 3.0574329311 2.718901062 2.7598010554 2.8058000847 2.8576792927 2.91630358 
2.9825888767 3.0574329311 3.1415926536 2.718901062 2.7598010554 2.8307207459 2.8058000847 2.8800620952 2.95115522 
2.8576792927 2.9351694502 3.00855263 3.0774230472 2.91630358 2.9967168029 3.0719036933 3.1415926536 3.0774230472 
2.9825888767 3.0653475414 3.1415926536 3.0719036933 3.00855263 2.95115522 3.0574329311 3.1415926536 3.0653475414 