# vtk DataFile Version 5.1
vtk output
ASCII
DATASET POLYDATA
POINTS 100 float
-4.09938 4.62529 1.47559 -4.11141 4.61732 1.47004 -4.14711 4.59135 1.45814 
-4.20479 4.5476 1.44155 -4.28178 4.48644 1.42266 -4.37486 4.40838 1.40428 
-4.48054 4.31396 1.38914 -4.59554 4.20378 1.37952 -4.71707 4.07838 1.37686 
-4.84312 3.93828 1.38167 -4.97255 3.78389 1.39341 -5.10508 3.61558 1.41071 
-5.24119 3.43363 1.43163 -5.38191 3.2383 1.45396 -5.52858 3.02988 1.4756 
-5.6826 2.80873 1.49485 -5.84524 2.57538 1.51057 -6.01752 2.3305 1.52227 
-6.20011 2.075 1.52999 -6.39334 1.80999 1.53418 -6.5973 1.53675 1.53545 
-6.81187 1.2567 1.53435 -7.03683 0.971261 1.53118 -7.27194 0.681811 1.52591 
-7.51699 0.389544 1.51814 -7.77177 0.0953921 1.50727 -8.03609 -0.200037 1.49254 
-8.30977 -0.496489 1.47333 -8.59254 -0.794044 1.44925 -8.88409 -1.09305 1.42027 
-9.18405 -1.39403 1.38677 -9.49198 -1.69754 1.34946 -9.80747 -2.00405 1.30929 
-10.1302 -2.31382 1.26725 -10.4598 -2.62681 1.22425 -10.7962 -2.94269 1.1809 
-11.1395 -3.26083 1.13753 -11.49 -3.58045 1.09409 -11.8481 -3.90078 1.05031 
-12.2142 -4.22126 1.00574 -12.589 -4.54177 0.959936 -12.9729 -4.86284 0.912576 
-13.3666 -5.18581 0.86351 -13.7702 -5.51289 0.812776 -14.1838 -5.84716 0.760514 
-14.607 -6.19241 0.706834 -15.039 -6.55295 0.651641 -15.4785 -6.93326 0.594485 
-15.9233 -7.33761 0.534454 -16.3711 -7.76972 0.470157 -16.8185 -8.23238 0.399814 
-17.2618 -8.72718 0.321452 -17.697 -9.25438 0.233171 -18.1199 -9.81285 0.133462 
-18.5266 -10.4002 0.0214981 -18.9134 -11.013 -0.102639 -19.2776 -11.6471 -0.237842 
-19.6173 -12.2982 -0.382013 -19.9316 -12.9618 -0.532229 -20.2206 -13.6341 -0.685048 
-20.4852 -14.3121 -0.836882 -20.7272 -14.9933 -0.98441 -20.9484 -15.6766 -1.12494 
-21.1508 -16.3615 -1.2567 -21.3358 -17.0482 -1.37895 -21.5045 -17.7371 -1.49205 
-21.6571 -18.4289 -1.59723 -21.7931 -19.1237 -1.6964 -21.9117 -19.8212 -1.79177 
-22.0117 -20.5205 -1.88557 -22.0922 -21.2198 -1.97972 -22.1524 -21.9167 -2.07559 
-22.1927 -22.6081 -2.17396 -22.2139 -23.2909 -2.27501 -22.2181 -23.9618 -2.37838 
-22.208 -24.6178 -2.48342 -22.1868 -25.2564 -2.58932 -22.1581 -25.8756 -2.69533 
-22.1252 -26.4742 -2.80083 -22.0913 -27.0516 -2.90544 -22.0589 -27.6075 -3.0089 
-22.0298 -28.142 -3.11104 -22.0053 -28.6551 -3.21158 -21.9862 -29.1467 -3.31 
-21.973 -29.6161 -3.40544 -21.9661 -30.0623 -3.49663 -21.9657 -30.4839 -3.58198 
-21.9724 -30.8789 -3.65964 -21.9866 -31.2453 -3.7278 -22.0086 -31.581 -3.78487 
-22.0383 -31.8842 -3.82975 -22.0753 -32.1536 -3.86206 -22.1183 -32.3883 -3.88226 
-22.1651 -32.5882 -3.89167 -22.2131 -32.754 -3.89235 -22.2589 -32.8867 -3.88692 
-22.2991 -32.9876 -3.87823 -22.3304 -33.0581 -3.86902 -22.35 -33.0994 -3.86156 
-22.3562 -33.1125 -3.85737 
LINES 2 100
OFFSETS vtktypeint64
0 100 
CONNECTIVITY vtktypeint64
0 1 2 3 4 5 6 7 8 
9 10 11 12 13 14 15 16 17 
18 19 20 21 22 23 24 25 26 
27 28 29 30 31 32 33 34 35 
36 37 38 39 40 41 42 43 44 
45 46 47 48 49 50 51 52 53 
54 55 56 57 58 59 60 61 62 
63 64 65 66 67 68 69 70 71 
72 73 74 75 76 77 78 79 80 
81 82 83 84 85 86 87 88 89 
90 91 92 93 94 95 96 97 98 
99 
POINT_DATA 100
FIELD FieldData 3
_theta 1 100 double
0 0.031733259127 0.063466518254 0.095199777382 0.12693303651 0.15866629564 0.19039955476 0.22213281389 0.25386607302 
0.28559933214 0.31733259127 0.3490658504 0.38079910953 0.41253236865 0.44426562778 0.47599888691 0.50773214603 0.53946540516 
0.57119866429 0.60293192342 0.63466518254 0.66639844167 0.6981317008 0.72986495992 0.76159821905 0.79333147818 0.82506473731 
0.85679799643 0.88853125556 0.92026451469 0.95199777382 0.98373103294 1.0154642921 1.0471975512 1.0789308103 1.1106640695 
1.1423973286 1.1741305877 1.2058638468 1.237597106 1.2693303651 1.3010636242 1.3327968833 1.3645301425 1.3962634016 
1.4279966607 1.4597299198 1.491463179 1.5231964381 1.5549296972 1.5866629564 1.6183962155 1.6501294746 1.6818627337 
1.7135959929 1.745329252 1.7770625111 1.8087957702 1.8405290294 1.8722622885 1.9039955476 1.9357288068 1.9674620659 
1.999195325 2.0309285841 2.0626618433 2.0943951024 2.1261283615 2.1578616206 2.1895948798 2.2213281389 2.253061398 
2.2847946572 2.3165279163 2.3482611754 2.3799944345 2.4117276937 2.4434609528 2.4751942119 2.506927471 2.5386607302 
2.5703939893 2.6021272484 2.6338605076 2.6655937667 2.6973270258 2.7290602849 2.7607935441 2.7925268032 2.8242600623 
2.8559933214 2.8877265806 2.9194598397 2.9511930988 2.982926358 3.0146596171 3.0463928762 3.0781261353 3.1098593945 
3.1415926536 
_radius 1 100 double
6.2803698347e-15 0.29283098463 0.58623193911 0.88046795089 1.175399189 1.4703449871 1.764017529 2.0545419325 2.3395717062 
2.6164947071 2.8827055344 3.1359004703 3.3743382403 3.5970108263 3.8036856018 3.9948097258 4.1713021395 4.3342874558 
4.4848397761 4.6237975303 4.7516850209 4.868742463 4.9750369974 5.0706117613 5.155630077 5.2304817911 5.2958315188 
5.3525996757 5.4018767361 5.4447811846 5.4822827058 5.5150217133 5.5431599785 5.5662919721 5.5834335919 5.5930891029 
5.5933843668 5.5822483364 5.5576244755 5.5176951005 5.4611007936 5.387133667 5.2958808815 5.188297982 5.0662022278 
4.9321914227 4.7895073446 4.6418681369 4.4932884575 4.3478938945 4.2097260021 4.0825337574 3.9695560466 3.8733101333 
3.795406888 3.7364196133 3.6958456973 3.672203898 3.6632772083 3.6664502444 3.6790506432 3.6986148662 3.723039475 
3.7506180684 3.7799900379 3.8100412336 3.8397989436 3.8683532002 3.8948168523 3.9183179197 3.938009416 3.9530860224 
3.9628061671 3.9665216805 3.9637103057 3.9539940195 3.9371203141 3.912893445 3.8810652565 3.8412161237 3.7926613949 
3.7344056008 3.6651474975 3.5833282165 3.4872169184 3.3750353756 3.2451227256 3.0961283773 2.9271997984 2.7381158128 
2.5293185908 2.3018240973 2.0570346208 1.7965214166 1.5218689118 1.2346550069 0.93658040762 0.62967761972 0.31647470927 
5.621562936e-14 
_area 1 100 double
0 0.2556422969 1.0231513412 2.3024534876 4.0882340088 6.3646817347 9.1017201899 12.253984383 15.76262143 
19.559143234 23.570323771 27.723397413 31.951139789 36.196366152 40.414971905 44.576381222 48.660704377 52.653028016 
56.536510934 60.286695021 63.869282204 67.24249679 70.363405789 73.195988862 75.71813752 77.925426755 79.831013556 
81.462467937 82.857001473 84.056362174 85.102024844 86.030590209 86.868767279 87.627390143 88.295022812 88.833299079 
89.176683281 89.238126719 88.920263814 88.130422511 86.796750121 84.882164699 82.393104428 79.381265797 75.938238628 
72.184693098 68.257119863 64.295358952 60.432750055 56.788541186 53.461361002 50.523946013 48.020570912 45.967453098 
44.354738395 43.150269765 42.306997853 41.771655699 41.490843725 41.415189038 41.502531108 41.718621764 42.034445615 
42.421648132 42.848857164 43.281365009 43.684859485 44.031492124 44.305069622 44.502145748 44.627250357 44.683664646 
44.664906919 44.552488295 44.320965988 43.946677871 43.415258776 42.724288661 41.880364266 40.892807607 39.767133528 
38.500510022 37.080153156 35.484695031 33.688139575 31.66578985 29.401206178 26.892982715 24.160120033 21.244874952 
18.212123541 15.144843017 12.136581365 9.2832215607 6.6767298822 4.4021295043 2.5365251647 1.1476316743 0.29008263557 
1.2545949523e-13 
