# vtk DataFile Version 5.1
vtk output
ASCII
DATASET POLYDATA
POINTS 100 float
-3.36072 4.51916 0.898344 -3.37126 4.50979 0.893007 -3.40208 4.48065 0.881779 
-3.45217 4.43305 0.866246 -3.51997 4.36892 0.848718 -3.60367 4.29053 0.831871 
-3.7014 4.20006 0.818324 -3.81153 4.09933 0.810258 -3.93281 3.9895 0.809104 
-4.06444 3.87097 0.815382 -4.20607 3.74346 0.828687 -4.35765 3.6061 0.847825 
-4.51926 3.4578 0.871071 -4.69098 3.29748 0.896482 -4.87267 3.12445 0.922211 
-5.06399 2.93854 0.946774 -5.2643 2.74028 0.969215 -5.47282 2.53083 0.989146 
-5.68871 2.31187 1.00669 -5.91125 2.08536 1.0223 -6.13996 1.8533 1.0366 
-6.37466 1.61749 1.05012 -6.6155 1.37931 1.06318 -6.86288 1.13971 1.07577 
-7.11731 0.899157 1.08758 -7.37934 0.657718 1.098 -7.64939 0.415226 1.10635 
-7.92765 0.171407 1.11194 -8.21413 -0.073984 1.1143 -8.50866 -0.321094 1.11319 
-8.81099 -0.569953 1.10873 -9.12092 -0.820516 1.10132 -9.43839 -1.07274 1.0916 
-9.76354 -1.32665 1.08037 -10.0967 -1.58241 1.06845 -10.4383 -1.84035 1.05664 
-10.7888 -2.10086 1.04566 -11.1486 -2.3644 1.03618 -11.5178 -2.63133 1.0288 
-11.8964 -2.90185 1.02415 -12.2841 -3.17601 1.02285 -12.6804 -3.45368 1.02554 
-13.0852 -3.73479 1.03278 -13.4983 -4.01943 1.04499 -13.9198 -4.30822 1.06221 
-14.3504 -4.60243 1.08402 -14.7907 -4.90429 1.1094 -15.2413 -5.21694 1.13663 
-15.7026 -5.54439 1.16338 -16.1738 -5.89125 1.18682 -16.6534 -6.26233 1.2039 
-17.1383 -6.66207 1.21167 -17.624 -7.09406 1.20763 -18.1051 -7.5605 1.19007 
-18.5753 -8.06187 1.15836 -19.0286 -8.59671 1.11308 -19.4593 -9.1617 1.05598 
-19.8632 -9.75196 0.989887 -20.238 -10.3615 0.91836 -20.5834 -10.9839 0.845321 
-20.901 -11.6128 0.774624 -21.1942 -12.243 0.709657 -21.4672 -12.8704 0.653011 
-21.7243 -13.4925 0.606279 -21.9691 -14.109 0.569989 -22.2041 -14.721 0.543675 
-22.4299 -15.3311 0.52607 -22.6455 -15.9427 0.515364 -22.8484 -16.5599 0.509502 
-23.0351 -17.1864 0.506458 -23.2024 -17.8251 0.504449 -23.3474 -18.4781 0.502075 
-23.4687 -19.1457 0.498367 -23.5667 -19.827 0.492756 -23.6432 -20.5192 0.484988 
-23.7018 -21.2182 0.475012 -23.7467 -21.9187 0.462871 -23.7824 -22.6146 0.448621 
-23.813 -23.2994 0.432293 -23.8412 -23.9665 0.413905 -23.8687 -24.61 0.39351 
-23.8957 -25.2245 0.371265 -23.9215 -25.8061 0.347497 -23.9451 -26.3522 0.322761 
-23.9657 -26.8617 0.297844 -23.9834 -27.3349 0.273734 -23.9996 -27.7732 0.251548 
-24.0171 -28.179 0.23241 -24.0394 -28.555 0.21733 -24.0705 -28.9037 0.207069 
-24.114 -29.2274 0.202029 -24.1718 -29.5269 0.202187 -24.2439 -29.802 0.20707 
-24.3278 -30.0513 0.215791 -24.4184 -30.2719 0.227126 -24.5088 -30.4603 0.239645 
-24.5908 -30.6124 0.251854 -24.6562 -30.7244 0.262361 -24.6983 -30.7929 0.270025 
-24.7124 -30.8158 0.274079 
LINES 2 100
OFFSETS vtktypeint64
0 100 
CONNECTIVITY vtktypeint64
0 1 2 3 4 5 6 7 8 
9 10 11 12 13 14 15 16 17 
18 19 20 21 22 23 24 25 26 
27 28 29 30 31 32 33 34 35 
36 37 38 39 40 41 42 43 44 
45 46 47 48 49 50 51 52 53 
54 55 56 57 58 59 60 61 62 
63 64 65 66 67 68 69 70 71 
72 73 74 75 76 77 78 79 80 
81 82 83 84 85 86 87 88 89 
90 91 92 93 94 95 96 97 98 
99 
POINT_DATA 100
FIELD FieldData 3
_theta 1 100 double
0 0.031733259127 0.063466518254 0.095199777382 0.12693303651 0.15866629564 0.19039955476 0.22213281389 0.25386607302 
0.28559933214 0.31733259127 0.3490658504 0.38079910953 0.41253236865 0.44426562778 0.47599888691 0.50773214603 0.53946540516 
0.57119866429 0.60293192342 0.63466518254 0.66639844167 0.6981317008 0.72986495992 0.76159821905 0.79333147818 0.82506473731 
0.85679799643 0.88853125556 0.92026451469 0.95199777382 0.98373103294 1.0154642921 1.0471975512 1.0789308103 1.1106640695 
1.1423973286 1.1741305877 1.2058638468 1.237597106 1.2693303651 1.3010636242 1.3327968833 1.3645301425 1.3962634016 
1.4279966607 1.4597299198 1.491463179 1.5231964381 1.5549296972 1.5866629564 1.6183962155 1.6501294746 1.6818627337 
1.7135959929 1.745329252 1.7770625111 1.8087957702 1.8405290294 1.8722622885 1.9039955476 1.9357288068 1.9674620659 
1.999195325 2.0309285841 2.0626618433 2.0943951024 2.1261283615 2.1578616206 2.1895948798 2.2213281389 2.253061398 
2.2847946572 2.3165279163 2.3482611754 2.3799944345 2.4117276937 2.4434609528 2.4751942119 2.506927471 2.5386607302 
2.5703939893 2.6021272484 2.6338605076 2.6655937667 2.6973270258 2.7290602849 2.7607935441 2.7925268032 2.8242600623 
2.8559933214 2.8877265806 2.9194598397 2.9511930988 2.982926358 3.0146596171 3.0463928762 3.0781261353 3.1098593945 
3.1415926536 
_radius 1 100 double
6.9873524644e-15 0.28646981151 0.57241712335 0.8571849691 1.1399331898 1.4195948302 1.6948787221 1.9643218591 2.2263864263 
2.4795855926 2.72261223 2.9544413559 3.1743848947 3.3820942656 3.5775229826 3.7608681414 3.9325047915 4.0929184516 
4.2426376007 4.3821719493 4.5119675249 4.6323882224 4.7437234614 4.8462089515 4.9400418304 5.0253781701 5.1023167062 
5.1708864431 5.2310560789 5.2827681076 5.3259809368 5.3606938893 5.3869390302 5.4047427601 5.414074784 5.4148034887 
5.4066670258 5.3892582626 5.3620188597 5.3242458946 5.2751273786 5.2138285345 5.1396390167 5.0521642948 4.9515179381 
4.8384645388 4.7144818799 4.5817434514 4.4430478827 4.3017273499 4.1615543968 4.0266458548 3.9013403043 3.7900020179 
3.6966845421 3.6246006084 3.5754484168 3.5488432075 3.5422147227 3.5513134295 3.5710732874 3.5964441012 3.6229855642 
3.6472115618 3.6667372005 3.6802685608 3.687463044 3.6886972149 3.684793529 3.676759025 3.6655748848 3.6520545116 
3.636767673 3.6200123899 3.6018083474 3.581892264 3.5597156624 3.5344607619 3.5050817726 3.4703548086 3.4289102083 
3.3792397786 3.3196990559 3.2485356169 3.1639629013 3.0642763025 2.9479885559 2.8139536672 2.661455374 2.4902529996 
2.3005937324 2.0932046117 1.8692682531 1.630374763 1.3784418191 1.1156075927 0.84411651643 0.56622373989 0.28413695179 
6.9228333343e-14 
_area 1 100 double
0 0.241640463 0.96263307657 2.1498295485 3.7779362267 5.8076472735 8.1871171712 10.857349067 13.760160576 
16.846149762 20.079813057 23.439645948 26.912703274 30.485587824 34.136185408 37.830716146 41.527712785 45.186161779 
48.772808078 52.265174826 55.650335047 58.921718816 62.075864952 65.109319232 68.014974783 70.777922686 73.372540709 
75.763403621 77.911226709 79.781752598 81.352772398 82.615154283 83.567941362 84.211816493 84.545715028 84.568094026 
84.280575383 83.69000217 82.805912644 81.633529219 80.166508031 78.386357991 76.273060914 73.823659447 71.068230252 
68.072678149 64.925710751 61.717147305 58.519647944 55.383287906 52.344396142 49.441815069 46.73038451 44.285251463 
42.196774214 40.556281393 39.429142328 38.819863007 38.657237283 38.820181283 39.180857876 39.632624862 40.096815323 
40.51803039 40.857392577 41.088154244 41.193516122 41.164743636 40.99877526 40.696348068 40.261966128 39.705696102 
39.045353562 38.307125981 37.523002107 36.724471205 35.933953181 35.157501061 34.382277131 33.579459036 32.71034703 
31.733099473 30.608702153 29.305489863 27.80198691 26.088497037 24.168006846 22.056444272 19.782041566 17.383915686 
14.910491445 12.418378152 9.971674438 7.640947665 5.5009326025 3.6265119082 2.0874530626 0.94308171832 0.23808724435 
5.3290705182e-15 
