# vtk DataFile Version 5.1
vtk output
ASCII
DATASET POLYDATA
POINTS 100 float
-4.41824 4.78745 1.00201 -4.42508 4.77813 1.00057 -4.44656 4.74864 0.999947 
-4.48302 4.70012 1.00022 -4.53482 4.63423 1.00142 -4.60206 4.55283 1.00356 
-4.68441 4.45764 1.00652 -4.78095 4.34992 1.01008 -4.89014 4.23033 1.01388 
-5.00992 4.09881 1.01749 -5.13797 3.95476 1.02047 -5.27204 3.79728 1.02241 
-5.41032 3.62546 1.02304 -5.55176 3.43876 1.02225 -5.69624 3.23725 1.02008 
-5.84466 3.02172 1.0167 -5.99871 2.7937 1.01229 -6.16061 2.55529 1.00699 
-6.33272 2.30882 1.00074 -6.51703 2.05658 0.993265 -6.71487 1.80045 0.984006 
-6.92664 1.54168 0.972201 -7.15174 1.28075 0.956964 -7.38873 1.01746 0.937444 
-7.63561 0.751067 0.912981 -7.89022 0.480584 0.88325 -8.1506 0.205068 0.848357 
-8.41536 -0.0760932 0.808852 -8.68385 -0.363 0.765658 -8.95619 -0.655176 0.719925 
-9.23313 -0.95164 0.672828 -9.51579 -1.25108 0.625349 -9.80533 -1.55209 0.578096 
-10.1026 -1.85343 0.531185 -10.4082 -2.1542 0.484218 -10.722 -2.45396 0.436371 
-11.0436 -2.75274 0.386573 -11.3724 -3.05099 0.33374 -11.708 -3.34938 0.277024 
-12.0504 -3.64873 0.216022 -12.4004 -3.94989 0.150896 -12.7594 -4.25375 0.0823803 
-13.1293 -4.56133 0.0116648 -13.5122 -4.87397 -0.0598271 -13.91 -5.19356 -0.130726 
-14.3235 -5.52275 -0.200013 -14.7523 -5.86502 -0.267267 -15.1941 -6.22469 -0.332815 
-15.6451 -6.6067 -0.39774 -16.0994 -7.01617 -0.463753 -16.5502 -7.45793 -0.532935 
-16.99 -7.93589 -0.607407 -17.4114 -8.45252 -0.688969 -17.808 -9.00842 -0.778786 
-18.1751 -9.60209 -0.877178 -18.5097 -10.2301 -0.983545 -18.811 -10.8872 -1.09644 
-19.0799 -11.5671 -1.21377 -19.319 -12.2633 -1.33314 -19.5314 -12.9693 -1.45216 
-19.7206 -13.6796 -1.56879 -19.8896 -14.3902 -1.68159 -20.0407 -15.0986 -1.78984 
-20.175 -15.8036 -1.89355 -20.2926 -16.5055 -1.99335 -20.3926 -17.2049 -2.09027 
-20.4736 -17.9026 -2.18547 -20.5342 -18.5989 -2.28004 -20.5732 -19.293 -2.3748 
-20.5898 -19.9835 -2.47016 -20.5841 -20.6676 -2.56619 -20.5569 -21.3418 -2.66263 
-20.5097 -22.0025 -2.75906 -20.4447 -22.6461 -2.85506 -20.364 -23.2695 -2.95031 
-20.2705 -23.8708 -3.04471 -20.1666 -24.4491 -3.13836 -20.0552 -25.0045 -3.23149 
-19.939 -25.538 -3.32434 -19.8208 -26.0512 -3.41704 -19.7036 -26.5455 -3.50943 
-19.5904 -27.0221 -3.60098 -19.4842 -27.4816 -3.69078 -19.3881 -27.9234 -3.77757 
-19.3047 -28.3464 -3.85988 -19.2359 -28.7487 -3.93616 -19.183 -29.1276 -4.00503 
-19.1463 -29.4807 -4.06541 -19.1252 -29.8055 -4.11666 -19.118 -30.1001 -4.15862 
-19.1226 -30.3632 -4.19165 -19.1361 -30.5944 -4.21653 -19.1555 -30.7937 -4.23432 
-19.1779 -30.9622 -4.24626 -19.2007 -31.1009 -4.25361 -19.2218 -31.2115 -4.25755 
-19.2396 -31.2955 -4.25909 -19.2528 -31.3543 -4.25903 -19.261 -31.3889 -4.25794 
-19.2636 -31.4001 -4.25618 
LINES 2 100
OFFSETS vtktypeint64
0 100 
CONNECTIVITY vtktypeint64
0 1 2 3 4 5 6 7 8 
9 10 11 12 13 14 15 16 17 
18 19 20 21 22 23 24 25 26 
27 28 29 30 31 32 33 34 35 
36 37 38 39 40 41 42 43 44 
45 46 47 48 49 50 51 52 53 
54 55 56 57 58 59 60 61 62 
63 64 65 66 67 68 69 70 71 
72 73 74 75 76 77 78 79 80 
81 82 83 84 85 86 87 88 89 
90 91 92 93 94 95 96 97 98 
99 
POINT_DATA 100
FIELD FieldData 3
_theta 1 100 double
0 0.031733259127 0.063466518254 0.095199777382 0.12693303651 0.15866629564 0.19039955476 0.22213281389 0.25386607302 
0.28559933214 0.31733259127 0.3490658504 0.38079910953 0.41253236865 0.44426562778 0.47599888691 0.50773214603 0.53946540516 
0.57119866429 0.60293192342 0.63466518254 0.66639844167 0.6981317008 0.72986495992 0.76159821905 0.79333147818 0.82506473731 
0.85679799643 0.88853125556 0.92026451469 0.95199777382 0.98373103294 1.0154642921 1.0471975512 1.0789308103 1.1106640695 
1.1423973286 1.1741305877 1.2058638468 1.237597106 1.2693303651 1.3010636242 1.3327968833 1.3645301425 1.3962634016 
1.4279966607 1.4597299198 1.491463179 1.5231964381 1.5549296972 1.5866629564 1.6183962155 1.6501294746 1.6818627337 
1.7135959929 1.745329252 1.7770625111 1.8087957702 1.8405290294 1.8722622885 1.9039955476 1.9357288068 1.9674620659 
1.999195325 2.0309285841 2.0626618433 2.0943951024 2.1261283615 2.1578616206 2.1895948798 2.2213281389 2.253061398 
2.2847946572 2.3165279163 2.3482611754 2.3799944345 2.4117276937 2.4434609528 2.4751942119 2.506927471 2.5386607302 
2.5703939893 2.6021272484 2.6338605076 2.6655937667 2.6973270258 2.7290602849 2.7607935441 2.7925268032 2.8242600623 
2.8559933214 2.8877265806 2.9194598397 2.9511930988 2.982926358 3.0146596171 3.0463928762 3.0781261353 3.1098593945 
3.1415926536 
_radius 1 100 double
1.0970441735e-14 0.29004833101 0.57953329072 0.8678812909 1.1545376757 1.4388723127 1.7200379628 1.9968496588 2.2677579585 
2.5309542579 2.7845899177 3.0270419687 3.2571395977 3.4742826898 3.6784248633 3.8699392727 4.0494184036 4.217469862 
4.3745599206 4.5209344726 4.6566240692 4.7815225041 4.8955170381 4.9986396621 5.0912015589 5.1738704014 5.2476577588 
5.3138043218 5.3735797872 5.4280415052 5.4778095414 5.5229098893 5.562716303 5.5959952889 5.6210380408 5.6358514045 
5.6383757215 5.626697425 5.5992274 5.5548239002 5.4928529478 5.4131977889 5.316245471 5.2028842446 5.0745350787 
4.9332165106 4.7816141129 4.6231072598 4.4617076487 4.3018894498 4.1483310386 4.0056218881 3.8779909102 3.7690741032 
3.6816832442 3.6175225558 3.5768741583 3.558390555 3.5591640882 3.5751307967 3.6017083045 3.6344877073 3.6698146335 
3.7051528983 3.7391866811 3.7716727261 3.8030985904 3.8342314161 3.8656529487 3.8973743477 3.9286114206 3.9577744021 
3.9826822087 4.00095332 4.0104707349 4.0097892723 3.9983648717 3.9765358038 3.9452573787 3.9056604238 3.8585480231 
3.803953301 3.7408558423 3.6671111094 3.5796050255 3.4746142004 3.3483267665 3.1974517984 3.019818382 2.8148501415 
2.5838092371 2.329739545 2.0570972684 1.7711273018 1.477107888 1.1796233628 0.88201852104 0.58613757944 0.29237547734 
6.1565321925e-14 
_area 1 100 double
0 0.23901807391 0.952283258 2.1291887774 3.7538709835 5.8059880419 8.259588005 11.080480733 14.224066628 
17.635892711 21.255842223 25.024615931 28.88966333 32.808110189 36.746145814 40.676242449 44.574109075 48.416386145 
52.178911443 55.835040526 59.354137233 62.701271344 65.839515476 68.735543374 71.36763859 73.733499124 75.854450396 
77.77351667 79.546905314 81.230721043 82.86615029 84.466693735 86.010587248 87.440421551 88.669981939 89.596186823 
90.113105136 90.125571127 89.560773367 88.37667788 86.566506249 84.159091209 81.215654023 77.823997643 74.091163269 
70.135526995 66.079296158 62.042120838 58.135803398 54.459339365 51.093761264 48.097977811 45.508624014 43.345368385 
41.617687494 40.326470463 39.458524305 38.980251843 38.839479177 38.974122152 39.317789691 39.799864068 40.346127746 
40.885134521 41.360106295 41.741344523 42.032409162 42.26541723 42.485585942 42.730172431 43.009827024 43.29985688 
43.545136825 43.67658697 43.631918353 43.372026235 42.88772059 42.196547083 41.332880402 40.335192174 39.233463842 
38.038757769 36.736911474 35.288642637 33.637366428 31.723261334 29.499785466 26.948647359 24.090140155 20.986678846 
17.738546117 14.47243148 11.325006831 8.4250683176 5.878298271 3.7581421119 2.1045949429 0.93033990217 0.23160324431 
7.1054273576e-14 
