# vtk DataFile Version 5.1
vtk output
ASCII
DATASET POLYDATA
POINTS 1002 float
-10.2589 -0.0695248 -3.27497 10.3254 -0.861385 -3.04703 -9.86632 0.949999 3.46021 
9.82645 -1.22036 1.78651 -2.84395 2.75129 -2.40712 -2.03725 1.90618 0.94156 
-1.13349 -6.12879 -2.07417 -0.905866 -6.96913 1.86905 18.8874 7.31141 1.71465 
-14.9558 7.39094 0.810258 17.7393 -0.824535 0.250777 -15.1241 -4.06924 0.247775 
-9.13855 -0.352303 -3.30907 -7.82068 -0.731513 -3.36456 -6.24146 -1.13769 -3.41304 
-4.31308 -1.53335 -3.33385 -1.96331 -1.9702 -3.18513 0.768013 -2.32944 -3.19647 
3.61976 -2.31516 -3.32287 6.24001 -1.90149 -3.34141 8.46075 -1.35755 -3.22298 
-9.9424 0.487711 -3.32103 -9.53362 1.04892 -3.39516 -9.07676 1.60707 -3.54105 
-8.5123 2.12916 -3.69935 -7.67049 2.5624 -3.73337 -6.57215 2.93589 -3.60159 
-5.50551 3.28365 -3.36763 -4.62022 3.45141 -3.07005 -3.78241 3.25534 -2.73083 
-9.79755 -0.803424 -3.23779 -9.13955 -1.59099 -3.19052 -8.32408 -2.38698 -3.11759 
-7.4368 -3.14866 -2.95054 -6.44836 -3.83111 -2.72301 -5.34044 -4.44199 -2.57339 
-4.22633 -5.01021 -2.47553 -3.16259 -5.48925 -2.32994 -2.12449 -5.847 -2.17666 
-11.1625 0.524907 -3.25247 -12.1494 1.20351 -3.16883 -13.1784 2.04222 -2.96589 
-14.0893 3.02704 -2.58954 -14.7641 4.01034 -2.06712 -15.2113 4.88993 -1.51073 
-15.438 5.69722 -0.965433 -15.4411 6.438 -0.386245 -15.2641 7.02595 0.225787 
-11.0628 -0.310454 -3.18797 -11.8652 -0.614983 -3.01608 -12.6579 -0.923308 -2.78605 
-13.4011 -1.25277 -2.51557 -14.0548 -1.69176 -2.17091 -14.6077 -2.19633 -1.81235 
-14.9888 -2.68555 -1.4783 -15.1552 -3.2032 -1.02898 -15.1817 -3.71293 -0.406972 
9.84707 -0.522663 -3.04283 9.2076 -0.22961 -3.06844 8.35786 -0.035294 -3.17231 
7.23954 0.0492699 -3.21907 5.77313 0.0301694 -3.05365 3.85783 0.0382782 -2.81337 
1.62576 0.334655 -2.68708 -0.430779 0.998187 -2.6217 -1.90989 1.86072 -2.52344 
9.57769 -1.51066 -3.13944 8.63933 -2.17688 -3.18739 7.48795 -2.8743 -3.21844 
6.1561 -3.59511 -3.25214 4.78966 -4.22359 -3.1893 3.48354 -4.71382 -2.95649 
2.19134 -5.13624 -2.67669 0.929034 -5.51253 -2.46546 -0.193367 -5.83798 -2.28372 
11.8329 -0.127867 -2.81855 13.4354 0.774778 -2.44391 15.1684 1.983 -1.89572 
16.8729 3.51513 -1.32428 18.1794 5.07531 -0.839803 18.9655 6.27854 -0.312971 
19.4105 7.01333 0.307523 19.5599 7.38274 0.882411 19.3599 7.47189 1.34508 
11.6756 -0.765645 -2.89153 13.0486 -0.600174 -2.66914 14.3437 -0.352683 -2.38224 
15.5015 -0.1033 -2.04283 16.4914 0.0508609 -1.69402 17.2453 0.071155 -1.39022 
17.7439 -0.0328084 -1.09626 18.0043 -0.223697 -0.708581 17.9996 -0.483086 -0.222499 
-8.70445 0.515265 3.36472 -7.38102 -0.00188206 3.24604 -5.83589 -0.613337 3.07385 
-3.99529 -1.28314 2.81349 -1.83341 -1.90748 2.56717 0.614686 -2.34657 2.33371 
3.1982 -2.46597 1.99221 5.6805 -2.24258 1.68973 7.90178 -1.78917 1.63875 
-9.42656 1.42607 3.38705 -8.86095 1.86502 3.27433 -8.20134 2.24762 3.119 
-7.46425 2.5662 2.91949 -6.61607 2.75324 2.65364 -5.686 2.77078 2.31635 
-4.76565 2.65235 1.92923 -3.87303 2.42976 1.53113 -2.96545 2.15773 1.18931 
-9.53616 0.216992 3.49794 -9.15924 -0.484226 3.62229 -8.70975 -1.19277 3.75064 
-8.03375 -2.09055 3.63612 -7.04619 -3.16933 3.26334 -5.83216 -4.18799 2.91466 
-4.4757 -5.06314 2.67888 -3.09193 -5.84986 2.43371 -1.87374 -6.50749 2.15262 
-10.7297 1.67406 3.46913 -11.5565 2.41877 3.38365 -12.315 3.16218 3.21718 
-13.0975 3.95691 3.06215 -13.8927 4.78201 2.92433 -14.5145 5.55567 2.73179 
-14.9301 6.28448 2.44564 -15.184 6.91383 2.01828 -15.1942 7.29136 1.43971 
-10.8039 0.864408 3.50129 -11.8084 0.666443 3.41802 -12.8813 0.283332 3.22678 
-13.9217 -0.291294 3.00139 -14.7512 -0.949138 2.68143 -15.3279 -1.61526 2.21812 
-15.6912 -2.32981 1.76349 -15.7756 -3.0767 1.34935 -15.5495 -3.70186 0.837956 
9.1046 -1.10518 1.62213 8.18832 -0.997068 1.50383 7.07928 -0.878799 1.47376 
5.81157 -0.72581 1.45428 4.41264 -0.554271 1.3835 2.94486 -0.339482 1.2915 
1.50299 0.0154018 1.18144 0.156776 0.538684 1.07083 -1.03448 1.18468 1.00101 
9.27418 -1.75075 1.79873 8.48781 -2.37407 1.74663 7.46405 -3.09253 1.66952 
6.33561 -3.82914 1.66041 5.1639 -4.47633 1.74721 3.88344 -5.04378 1.83967 
2.55602 -5.6065 1.87143 1.31661 -6.14492 1.87921 0.172662 -6.60141 1.88947 
11.2631 -0.448542 1.89897 12.8532 0.570645 2.11574 14.5703 1.85106 2.53507 
16.1137 3.21793 2.98397 17.261 4.43594 3.1338 18.1521 5.45663 3.03517 
18.82 6.36623 2.89581 19.1176 7.09213 2.63833 19.0952 7.42188 2.20197 
11.3658 -0.867076 2.01584 12.97 -0.452579 2.19794 14.5455 -0.0906876 2.29918 
15.9408 0.134579 2.37483 17.0479 0.222267 2.37597 17.8314 0.144857 2.16805 
18.2762 -0.0976219 1.77892 18.3911 -0.370286 1.32366 18.2016 -0.588585 0.817464 
-2.68108 2.89669 -2.13938 -2.52857 3.00715 -1.84051 -2.37599 3.12724 -1.50945 
-2.21306 3.21237 -1.1468 -2.11512 3.17865 -0.744818 -2.10887 3.04816 -0.30175 
-2.09468 2.86453 0.133356 -2.04703 2.59484 0.491199 -2.02737 2.2487 0.749967 
-0.975613 1.65791 -2.23257 1.70631 1.10019 -2.17938 4.73998 1.54062 -2.09291 
7.4931 2.54791 -1.74075 9.83214 3.34559 -1.18387 11.997 3.89702 -0.612015 
14.1151 4.57237 0.00362366 16.075 5.46374 0.664431 17.6859 6.44724 1.24411 
-4.06074 4.05108 -2.50271 -5.22989 5.28705 -2.55173 -6.58859 6.24889 -2.38494 
-7.97072 6.86083 -1.98164 -9.27454 7.1961 -1.46838 -10.6285 7.42525 -0.936689 
-11.9063 7.59834 -0.456066 -12.9861 7.65072 -0.0468961 -13.9986 7.57559 0.367131 
-0.364628 1.26389 0.770448 1.68216 0.870187 0.570085 4.03028 0.962256 0.426407 
6.51444 1.53354 0.497452 9.00341 2.30898 0.77357 11.435 3.18258 1.08719 
13.727 4.24846 1.36022 15.7799 5.41154 1.58278 17.5158 6.46638 1.71058 
-3.51264 2.90522 0.983006 -4.94772 4.06786 1.06409 -6.33402 5.25245 1.30978 
-7.70276 6.33157 1.67109 -9.06906 7.25292 1.89456 -10.3682 7.89163 1.85562 
-11.5807 8.09313 1.64755 -12.7783 7.96884 1.37603 -13.9429 7.72673 1.09217 
-1.08664 -6.47601 -1.86298 -1.07976 -6.82883 -1.60244 -1.10762 -7.16275 -1.25917 
-1.14077 -7.48567 -0.79335 -1.1879 -7.75761 -0.255844 -1.25236 -7.88314 0.2662 
-1.2726 -7.84225 0.771568 -1.19325 -7.66786 1.24704 -1.04426 -7.36723 1.61892 
0.45818 -6.2242 -2.15228 2.24823 -6.31843 -2.24205 4.18434 -6.27822 -2.26654 
6.2167 -6.01506 -2.19868 8.25292 -5.72307 -2.12326 10.1918 -5.37771 -2.01127 
12.1286 -4.52172 -1.65091 14.1893 -3.15096 -1.01513 16.1719 -1.81542 -0.327482 
-2.61487 -6.23096 -1.88124 -4.16959 -6.26133 -1.64903 -5.78434 -6.20724 -1.42899 
-7.39183 -6.1375 -1.27801 -8.96055 -6.00145 -1.10728 -10.4998 -5.67282 -0.824469 
-11.9153 -5.26409 -0.531067 -13.1242 -4.93556 -0.30053 -14.1819 -4.58987 -0.0547542 
0.663217 -7.04894 1.57416 2.45817 -6.95667 1.19433 4.55326 -6.71198 0.768632 
6.80344 -6.41417 0.432131 8.96886 -6.12515 0.280923 10.9522 -5.61892 0.248784 
12.8201 -4.59 0.269858 14.6558 -3.18705 0.320836 16.3642 -1.85875 0.328331 
-2.57182 -7.03426 1.9638 -4.38053 -7.03231 1.99197 -6.24362 -6.95967 1.9804 
-8.10287 -6.76631 1.95155 -9.81671 -6.45054 1.88097 -11.2242 -6.06535 1.70275 
-12.4089 -5.6268 1.39362 -13.4877 -5.15458 1.02526 -14.4042 -4.65177 0.649887 
20.1899 8.10971 1.92559 21.347 8.44032 2.09121 22.3454 7.95858 2.15907 
23.0531 6.77922 2.03233 23.115 5.46746 1.75644 22.3778 4.25095 1.46219 
21.2702 2.90278 1.14548 20.2182 1.48434 0.801384 19.1182 0.254205 0.50298 
-16.0233 6.86887 0.87931 -16.8981 6.03401 0.835481 -17.4991 4.88471 0.661732 
-17.8726 3.56921 0.491908 -18.0252 2.23176 0.395993 -17.9201 0.879932 0.273139 
-17.5531 -0.524272 0.133003 -16.916 -1.91947 0.0996902 -16.06 -3.1419 0.168395 
-8.73293 0.169126 -3.37978 -8.24037 0.675723 -3.506 -7.31904 -0.25815 -3.46817 
-7.68509 1.14175 -3.66501 -6.70105 0.17015 -3.58353 -5.57391 -0.732263 -3.46269 
-6.95153 1.56872 -3.73401 -5.98742 0.551859 -3.6301 -4.75475 -0.417665 -3.47405 
-3.39084 -1.25266 -3.28521 -5.97775 1.96564 -3.62974 -5.14514 0.928889 -3.53411 
-3.85175 -0.146185 -3.41803 -2.29453 -1.0712 -3.2629 -0.732551 -1.78043 -3.15394 
-4.97106 2.29458 -3.40878 -4.18875 1.22338 -3.33088 -2.83553 0.0836697 -3.27256 
-1.04136 -0.888288 -3.23902 0.732092 -1.54627 -3.17754 2.28674 -1.98906 -3.20077 
-4.0567 2.42711 -3.13201 -3.12258 1.3049 -3.09558 -1.57209 0.178084 -3.06916 
0.442558 -0.696011 -3.1422 2.41652 -1.17663 -3.19603 4.02081 -1.4312 -3.19085 
5.26613 -1.66067 -3.24841 -3.07462 2.25389 -2.81922 -1.86158 1.183 -2.8506 
-0.0184965 0.209143 -2.86307 2.15421 -0.427386 -2.98281 4.16941 -0.670742 -3.166 
5.76272 -0.730003 -3.21729 6.93718 -0.836643 -3.17485 7.80351 -1.06487 -3.18695 
-10.8685 1.16033 -3.30027 -11.8917 1.93944 -3.21589 -10.4646 1.8205 -3.37556 
-12.8718 2.89069 -2.96362 -11.4175 2.7158 -3.24038 -9.95708 2.51115 -3.4848 
-13.6268 3.91969 -2.47578 -12.1975 3.71361 -2.83745 -10.7431 3.51597 -3.18929 
-9.29288 3.14481 -3.54645 -14.1417 4.87937 -1.87015 -12.7409 4.68967 -2.22821 
-11.2858 4.5085 -2.62324 -9.95133 4.2383 -3.09572 -8.33282 3.6264 -3.49408 
-14.4357 5.76786 -1.30772 -13.1322 5.63451 -1.65371 -11.6263 5.43393 -2.05406 
-10.3336 5.2726 -2.53309 -8.91902 4.80153 -3.02936 -7.10048 4.02618 -3.34688 
-14.4659 6.57147 -0.774505 -13.3207 6.53794 -1.14667 -11.8761 6.34124 -1.57994 
-10.472 6.17151 -2.06796 -9.20177 5.88266 -2.55149 -7.58701 5.21365 -2.95195 
-5.89093 4.36117 -3.13104 -14.2836 7.18645 -0.209024 -13.2383 7.23038 -0.606491 
-11.9885 7.108 -1.04303 -10.5607 6.90534 -1.55781 -9.2381 6.67535 -2.06884 
-7.85109 6.2091 -2.5134 -6.26963 5.42086 -2.79913 -4.906 4.41791 -2.84221 
-12.9098 7.89569 0.632499 -11.7264 8.12464 0.890142 -11.8477 7.91831 0.188046 
-10.4851 8.17175 1.13961 -10.594 8.08582 0.389484 -10.6802 7.80374 -0.273774 
-9.16882 7.81739 1.36747 -9.22426 8.0587 0.620125 -9.30896 7.9312 -0.112494 
-9.33445 7.59668 -0.793184 -7.83052 7.02532 1.39478 -7.8556 7.6211 0.863179 
-7.88494 7.87835 0.123404 -7.95511 7.6998 -0.638961 -7.97935 7.3042 -1.35513 
-6.50442 5.93478 1.11186 -6.59125 6.66211 0.84456 -6.59187 7.27767 0.332828 
-6.62231 7.47824 -0.418671 -6.67907 7.21892 -1.20525 -6.65866 6.76689 -1.87787 
-5.10627 4.66825 0.808058 -5.26302 5.31017 0.580847 -5.33056 5.95249 0.275825 
[...]
POINT_DATA 1002
FIELD FieldData 4
_paraPhi 1 1002 double
6.2831853072 3.1415926536 6.2831853072 3.1415926536 4.7123889804 4.7123889804 1.5707963268 1.5707963268 3.6951670125 
5.7296109483 2.5880182947 0.5535743589 6.2831853072 6.2831853072 6.2831853072 6.2831853072 3.1415926536 3.1415926536 
3.1415926536 3.1415926536 3.1415926536 6.1053039672 5.898798347 5.6768734901 5.4599499503 5.2659633393 5.1032165617 
4.9713148346 4.8656852733 4.7809517865 0.17788134 0.38438696014 0.60631181711 0.82323535693 1.0172219679 1.1799687454 
1.3118704726 1.4175000338 1.5022335207 6.1892828907 6.1070320098 6.035312792 5.9728339911 5.9183214791 5.8706119594 
5.8286879411 5.7916808611 5.7588591896 0.093902416448 0.17615329733 0.2478725152 0.31035131605 0.36486382811 0.41257334776 
0.45449736604 0.4915044461 0.52432611754 3.3194739936 3.5259796137 3.7479044707 3.9648280105 4.1588146215 4.321561399 
4.4534631262 4.5590926874 4.6438261743 2.9637113136 2.7572056934 2.5352808365 2.3183572967 2.1243706857 1.9616239082 
1.829722181 1.7240926197 1.6393591329 3.23549507 3.3177459509 3.3894651688 3.4519439696 3.5064564817 3.5541660013 
3.5960900196 3.6330970997 3.6659187711 3.0476902371 2.9654393563 2.8937201384 2.8312413375 2.7767288255 2.7290193058 
2.6870952876 2.6500882075 2.617266536 6.2831853072 6.2831853072 6.2831853072 6.2831853072 3.1415926536 3.1415926536 
3.1415926536 3.1415926536 3.1415926536 6.1053039672 5.898798347 5.6768734901 5.4599499503 5.2659633393 5.1032165617 
4.9713148346 4.8656852733 4.7809517865 0.17788134 0.38438696014 0.60631181711 0.82323535693 1.0172219679 1.1799687454 
1.3118704726 1.4175000338 1.5022335207 6.1892828907 6.1070320098 6.035312792 5.9728339911 5.9183214791 5.8706119594 
5.8286879411 5.7916808611 5.7588591896 0.093902416448 0.17615329733 0.2478725152 0.31035131605 0.36486382811 0.41257334776 
0.45449736604 0.4915044461 0.52432611754 3.3194739936 3.5259796137 3.7479044707 3.9648280105 4.1588146215 4.321561399 
4.4534631262 4.5590926874 4.6438261743 2.9637113136 2.7572056934 2.5352808365 2.3183572967 2.1243706857 1.9616239082 
1.829722181 1.7240926197 1.6393591329 3.23549507 3.3177459509 3.3894651688 3.4519439696 3.5064564817 3.5541660013 
3.5960900196 3.6330970997 3.6659187711 3.0476902371 2.9654393563 2.8937201384 2.8312413375 2.7767288255 2.7290193058 
2.6870952876 2.6500882075 2.617266536 4.7123889804 4.7123889804 4.7123889804 4.7123889804 4.7123889804 4.7123889804 
4.7123889804 4.7123889804 4.7123889804 4.6087898617 4.4991390697 4.3857031936 4.2712800401 4.1588146215 4.0509635631 
3.94975894 3.8564636551 3.7716124825 4.8159880991 4.9256388911 5.0390747672 5.1534979207 5.2659633393 5.3738143976 
5.4750190208 5.5683143056 5.6531654782 4.6087898617 4.4991390697 4.3857031936 4.2712800401 4.1588146215 4.0509635631 
3.94975894 3.8564636551 3.7716124825 4.8159880991 4.9256388911 5.0390747672 5.1534979207 5.2659633393 5.3738143976 
5.4750190208 5.5683143056 5.6531654782 1.5707963268 1.5707963268 1.5707963268 1.5707963268 1.5707963268 1.5707963268 
1.5707963268 1.5707963268 1.5707963268 1.6743954455 1.7840462375 1.8974821136 2.0119052671 2.1243706857 2.232221744 
2.3334263672 2.426721652 2.5115728246 1.4671972081 1.3575464161 1.24411054 1.1296873865 1.0172219679 0.90937090954 
0.80816628637 0.71487100155 0.63001982895 1.6743954455 1.7840462375 1.8974821136 2.0119052671 2.1243706857 2.232221744 
2.3334263672 2.426721652 2.5115728246 1.4671972081 1.3575464161 1.24411054 1.1296873865 1.0172219679 0.90937090954 
0.80816628637 0.71487100155 0.63001982895 3.6007720849 3.4966939854 3.3839471039 3.2645756454 3.1415926536 3.0186096618 
2.8992382033 2.7864913217 2.6824132222 5.8240058758 5.9280839753 6.0408308569 6.1602023154 6.2831853072 0.12298299178 
0.2423544503 0.35510133185 0.45917943135 6.0560271438 5.7885595667 5.9702140275 5.5125918794 5.6029703303 5.7885595667 
5.2659633393 5.2659633393 5.2659633393 5.2659633393 5.0674903122 5.0120975802 4.9155579264 4.7123889804 4.1588146215 
4.9155579264 4.8353719722 4.7123889804 4.5092200343 4.1588146215 3.6362183941 4.8004512023 4.7123889804 4.5894059886 
4.4126803806 4.1588146215 3.8218076305 3.4545639333 4.7123889804 4.6243267584 4.5092200343 4.3572876485 4.1588146215 
3.9121860814 3.6362183941 3.368750817 6.0174235957 5.9434319871 5.8263323547 5.8809213739 5.7674481418 5.6279784266 
5.8278025282 5.718968232 5.5891129425 5.4372443565 5.7823484065 5.678536687 5.5575666702 5.4192596322 5.2659633393 
5.743164462 5.6444075337 5.5314983644 5.4046708639 5.2659633393 5.1195510325 5.7091357773 5.6152775188 5.5096229709 
5.3926039573 5.2659633393 5.1329233157 4.9978930058 5.6793730533 5.5901633916 5.4910209005 5.3824597928 5.2659633393 
5.1440684722 5.0201624502 4.8979782167 5.5683143056 5.4750190208 5.4750190208 5.3738143976 5.3738143976 5.3738143976 
5.2659633393 5.2659633393 5.2659633393 5.2659633393 5.1534979207 5.1534979207 5.1534979207 5.1534979207 5.1534979207 
5.0390747672 5.0390747672 5.0390747672 5.0390747672 5.0390747672 5.0390747672 4.9256388911 4.9256388911 4.9256388911 
4.9256388911 4.9256388911 4.9256388911 4.9256388911 4.8159880991 4.8159880991 4.8159880991 4.8159880991 4.8159880991 
4.8159880991 4.8159880991 4.8159880991 4.6087898617 4.6087898617 4.4991390697 4.6087898617 4.4991390697 4.3857031936 
4.6087898617 4.4991390697 4.3857031936 4.2712800401 4.6087898617 4.4991390697 4.3857031936 4.2712800401 4.1588146215 
4.6087898617 4.4991390697 4.3857031936 4.2712800401 4.1588146215 4.0509635631 4.6087898617 4.4991390697 4.3857031936 
4.2712800401 4.1588146215 4.0509635631 3.94975894 4.6087898617 4.4991390697 4.3857031936 4.2712800401 4.1588146215 
4.0509635631 3.94975894 3.8564636551 4.526799744 4.4046155105 4.426884955 4.2807094886 4.2918546451 4.3052269283 
4.1588146215 4.1588146215 4.1588146215 4.1588146215 4.042318168 4.0321740035 4.0201070968 4.0055183285 3.9875336042 
3.9337570603 3.9151549899 3.8932795963 3.8672112905 3.8356650183 3.7967995342 3.8346145692 3.809500442 3.7803704271 
3.7462412737 3.7058097288 3.657329819 3.5984456061 3.7454049075 3.7156421835 3.6816134988 3.6424295543 3.5969754326 
3.5438565869 3.4813459737 3.4073543651 3.5642842451 3.4524645613 3.5233842518 3.3320300872 3.403123212 3.4773852225 
3.20576226 3.2746326772 3.348015857 3.4255060145 3.0774230472 3.1415926536 3.2112816139 3.2864685043 3.3668817272 
2.95115522 3.00855263 3.0719036933 3.1415926536 3.2178377658 3.3005964304 2.8307207459 2.8800620952 2.9351694502 
2.9967168029 3.0653475414 3.1415926536 3.225752376 2.718901062 2.7598010554 2.8058000847 2.8576792927 2.91630358 
2.9825888767 3.0574329311 3.1415926536 3.5642842451 3.5233842518 3.4524645613 3.4773852225 3.403123212 3.3320300872 
3.4255060145 3.348015857 3.2746326772 3.20576226 3.3668817272 3.2864685043 3.2112816139 3.1415926536 3.0774230472 
3.3005964304 3.2178377658 3.1415926536 3.0719036933 3.00855263 2.95115522 3.225752376 3.1415926536 3.0653475414 
2.9967168029 2.9351694502 2.8800620952 2.8307207459 3.1415926536 3.0574329311 2.9825888767 2.91630358 2.8576792927 
2.8058000847 2.7598010554 2.718901062 4.526799744 4.426884955 4.4046155105 4.3052269283 4.2918546451 4.2807094886 
4.1588146215 4.1588146215 4.1588146215 4.1588146215 3.9875336042 4.0055183285 4.0201070968 4.0321740035 4.042318168 
3.7967995342 3.8356650183 3.8672112905 3.8932795963 3.9151549899 3.9337570603 3.5984456061 3.657329819 3.7058097288 
3.7462412737 3.7803704271 3.809500442 3.8346145692 3.4073543651 3.4813459737 3.5438565869 3.5969754326 3.6424295543 
3.6816134988 3.7156421835 3.7454049075 4.7123889804 4.8004512023 4.6243267584 4.9155579264 4.7123889804 4.5092200343 
5.0674903122 4.8353719722 4.5894059886 4.3572876485 5.2659633393 5.0120975802 4.7123889804 4.4126803806 4.1588146215 
5.5125918794 5.2659633393 4.9155579264 4.5092200343 4.1588146215 3.9121860814 5.7885595667 5.6029703303 5.2659633393 
4.7123889804 4.1588146215 3.8218076305 3.6362183941 6.0560271438 5.9702140275 5.7885595667 5.2659633393 4.1588146215 
3.6362183941 3.4545639333 3.368750817 0.22715816343 0.49462574053 0.3129712797 0.77059342779 0.68021497688 0.49462574053 
1.0172219679 1.0172219679 1.0172219679 1.0172219679 1.2156949949 1.271087727 1.3676273807 1.5707963268 2.1243706857 
1.3676273807 1.447813335 1.5707963268 1.7739652728 2.1243706857 2.6469669131 1.4827341049 1.5707963268 1.6937793186 
1.8705049266 2.1243706857 2.4613776767 2.8286213739 1.5707963268 1.6588585487 1.7739652728 1.9258976586 2.1243706857 
2.3709992258 2.6469669131 2.9144344902 1.7563855631 1.8785697967 1.8563003522 2.0024758186 1.9913306621 1.9779583789 
2.1243706857 2.1243706857 2.1243706857 2.1243706857 2.2408671392 2.2510113037 2.2630782103 2.2776669786 2.295651703 
2.3494282469 2.3680303173 2.3899057108 2.4159740166 2.4475202889 2.486385773 2.448570738 2.4736848652 2.5028148801 
2.5369440334 2.5773755784 2.6258554882 2.6847397011 2.5377803997 2.5675431237 2.6015718084 2.6407557529 2.6862098746 
2.7393287203 2.8018393335 2.8758309421 1.6743954455 1.6743954455 1.7840462375 1.6743954455 1.7840462375 1.8974821136 
1.6743954455 1.7840462375 1.8974821136 2.0119052671 1.6743954455 1.7840462375 1.8974821136 2.0119052671 2.1243706857 
1.6743954455 1.7840462375 1.8974821136 2.0119052671 2.1243706857 2.232221744 1.6743954455 1.7840462375 1.8974821136 
2.0119052671 2.1243706857 2.232221744 2.3334263672 1.6743954455 1.7840462375 1.8974821136 2.0119052671 2.1243706857 
2.232221744 2.3334263672 2.426721652 1.4671972081 1.3575464161 1.4671972081 1.24411054 1.3575464161 1.4671972081 
1.1296873865 1.24411054 1.3575464161 1.4671972081 1.0172219679 1.1296873865 1.24411054 1.3575464161 1.4671972081 
0.90937090954 1.0172219679 1.1296873865 1.24411054 1.3575464161 1.4671972081 0.80816628637 0.90937090954 1.0172219679 
1.1296873865 1.24411054 1.3575464161 1.4671972081 0.71487100155 0.80816628637 0.90937090954 1.0172219679 1.1296873865 
1.24411054 1.3575464161 1.4671972081 0.60381225391 0.57404952988 0.69302191562 0.54002084522 0.66790778838 0.79216440667 
0.50083690068 0.63877777351 0.77356233629 0.90072551443 0.45538277901 0.60464862014 0.75168694275 0.89058134991 1.0172219679 
0.40226393329 0.56421707518 0.72561863695 0.87851444325 1.0172219679 1.139116835 0.33975332011 0.51573716537 0.69407236469 
0.86392567495 1.0172219679 1.1502619915 1.2630228569 0.26576171152 0.45685295248 0.6552068806 0.84594095064 1.0172219679 
1.1636342747 1.2852923014 1.3852070904 0.22715816343 0.3129712797 0.49462574053 0.49462574053 0.68021497688 0.77059342779 
1.0172219679 1.0172219679 1.0172219679 1.0172219679 2.1243706857 1.5707963268 1.3676273807 1.271087727 1.2156949949 
2.6469669131 2.1243706857 1.7739652728 1.5707963268 1.447813335 1.3676273807 2.8286213739 2.4613776767 2.1243706857 
1.8705049266 1.6937793186 1.5707963268 1.4827341049 2.9144344902 2.6469669131 2.3709992258 2.1243706857 1.9258976586 
1.7739652728 1.6588585487 1.5707963268 1.7563855631 1.8563003522 1.8785697967 1.9779583789 1.9913306621 2.0024758186 
2.1243706857 2.1243706857 2.1243706857 2.1243706857 2.295651703 2.2776669786 2.2630782103 2.2510113037 2.2408671392 
2.486385773 2.4475202889 2.4159740166 2.3899057108 2.3680303173 2.3494282469 2.6847397011 2.6258554882 2.5773755784 
2.5369440334 2.5028148801 2.4736848652 2.448570738 2.8758309421 2.8018393335 2.7393287203 2.6862098746 2.6407557529 
2.6015718084 2.5675431237 2.5377803997 5.8604937156 5.901393709 5.9723133995 5.9473927383 6.0216547488 6.0927478736 
5.9992719463 6.0767621038 6.1501452836 6.2190157008 6.0578962336 6.1383094565 6.2134963469 0 0.064169606361 
6.1241815303 6.206940195 6.2831853072 0.069688960264 0.13304002361 0.19043743361 6.1990255847 0 0.07624511221 
0.14487585072 0.20642320337 0.26153055843 0.3108719077 0 0.084159722458 0.15900377685 0.22528907359 0.28391336087 
0.3357925689 0.38179159818 0.42269159155 5.8604937156 5.9723133995 5.901393709 6.0927478736 6.0216547488 5.9473927383 
6.2190157008 6.1501452836 6.0767621038 5.9992719463 0.064169606361 0 6.2134963469 6.1383094565 6.0578962336 
0.19043743361 0.13304002361 0.069688960264 6.2831853072 6.206940195 6.1241815303 0.3108719077 0.26153055843 0.20642320337 
0.14487585072 0.07624511221 6.2831853072 6.1990255847 0.42269159155 0.38179159818 0.3357925689 0.28391336087 0.22528907359 
0.15900377685 0.084159722458 0 5.6793730533 5.7091357773 5.5901633916 5.743164462 5.6152775188 5.4910209005 
5.7823484065 5.6444075337 5.5096229709 5.3824597928 5.8278025282 5.678536687 5.5314983644 5.3926039573 5.2659633393 
5.8809213739 5.718968232 5.5575666702 5.4046708639 5.2659633393 5.1440684722 5.9434319871 5.7674481418 5.5891129425 
5.4192596322 5.2659633393 5.1329233157 5.0201624502 6.0174235957 5.8263323547 5.6279784266 5.4372443565 5.2659633393 
5.1195510325 4.9978930058 4.8979782167 1.3852070904 1.2852923014 1.2630228569 1.1636342747 1.1502619915 1.139116835 
1.0172219679 1.0172219679 1.0172219679 1.0172219679 0.84594095064 0.86392567495 0.87851444325 0.89058134991 0.90072551443 
0.6552068806 0.69407236469 0.72561863695 0.75168694275 0.77356233629 0.79216440667 0.45685295248 0.51573716537 0.56421707518 
0.60464862014 0.63877777351 0.66790778838 0.69302191562 0.26576171152 0.33975332011 0.40226393329 0.45538277901 0.50083690068 
0.54002084522 0.57404952988 0.60381225391 
_paraPhiHalf 1 1002 double
0 3.1415926536 0 3.1415926536 1.5707963268 1.5707963268 1.5707963268 1.5707963268 2.5880182947 
0.5535743589 2.5880182947 0.5535743589 0 0 0 0 3.1415926536 3.1415926536 
3.1415926536 3.1415926536 3.1415926536 0.17788134 0.38438696014 0.60631181711 0.82323535693 1.0172219679 1.1799687454 
1.3118704726 1.4175000338 1.5022335207 0.17788134 0.38438696014 0.60631181711 0.82323535693 1.0172219679 1.1799687454 
1.3118704726 1.4175000338 1.5022335207 0.093902416448 0.17615329733 0.2478725152 0.31035131605 0.36486382811 0.41257334776 
0.45449736604 0.4915044461 0.52432611754 0.093902416448 0.17615329733 0.2478725152 0.31035131605 0.36486382811 0.41257334776 
0.45449736604 0.4915044461 0.52432611754 2.9637113136 2.7572056934 2.5352808365 2.3183572967 2.1243706857 1.9616239082 
1.829722181 1.7240926197 1.6393591329 2.9637113136 2.7572056934 2.5352808365 2.3183572967 2.1243706857 1.9616239082 
1.829722181 1.7240926197 1.6393591329 3.0476902371 2.9654393563 2.8937201384 2.8312413375 2.7767288255 2.7290193058 
2.6870952876 2.6500882075 2.617266536 3.0476902371 2.9654393563 2.8937201384 2.8312413375 2.7767288255 2.7290193058 
2.6870952876 2.6500882075 2.617266536 0 0 0 0 3.1415926536 3.1415926536 
3.1415926536 3.1415926536 3.1415926536 0.17788134 0.38438696014 0.60631181711 0.82323535693 1.0172219679 1.1799687454 
1.3118704726 1.4175000338 1.5022335207 0.17788134 0.38438696014 0.60631181711 0.82323535693 1.0172219679 1.1799687454 
1.3118704726 1.4175000338 1.5022335207 0.093902416448 0.17615329733 0.2478725152 0.31035131605 0.36486382811 0.41257334776 
0.45449736604 0.4915044461 0.52432611754 0.093902416448 0.17615329733 0.2478725152 0.31035131605 0.36486382811 0.41257334776 
0.45449736604 0.4915044461 0.52432611754 2.9637113136 2.7572056934 2.5352808365 2.3183572967 2.1243706857 1.9616239082 
1.829722181 1.7240926197 1.6393591329 2.9637113136 2.7572056934 2.5352808365 2.3183572967 2.1243706857 1.9616239082 
1.829722181 1.7240926197 1.6393591329 3.0476902371 2.9654393563 2.8937201384 2.8312413375 2.7767288255 2.7290193058 
2.6870952876 2.6500882075 2.617266536 3.0476902371 2.9654393563 2.8937201384 2.8312413375 2.7767288255 2.7290193058 
2.6870952876 2.6500882075 2.617266536 1.5707963268 1.5707963268 1.5707963268 1.5707963268 1.5707963268 1.5707963268 
1.5707963268 1.5707963268 1.5707963268 1.6743954455 1.7840462375 1.8974821136 2.0119052671 2.1243706857 2.232221744 
2.3334263672 2.426721652 2.5115728246 1.4671972081 1.3575464161 1.24411054 1.1296873865 1.0172219679 0.90937090954 
0.80816628637 0.71487100155 0.63001982895 1.6743954455 1.7840462375 1.8974821136 2.0119052671 2.1243706857 2.232221744 
2.3334263672 2.426721652 2.5115728246 1.4671972081 1.3575464161 1.24411054 1.1296873865 1.0172219679 0.90937090954 
0.80816628637 0.71487100155 0.63001982895 1.5707963268 1.5707963268 1.5707963268 1.5707963268 1.5707963268 1.5707963268 
1.5707963268 1.5707963268 1.5707963268 1.6743954455 1.7840462375 1.8974821136 2.0119052671 2.1243706857 2.232221744 
2.3334263672 2.426721652 2.5115728246 1.4671972081 1.3575464161 1.24411054 1.1296873865 1.0172219679 0.90937090954 
0.80816628637 0.71487100155 0.63001982895 1.6743954455 1.7840462375 1.8974821136 2.0119052671 2.1243706857 2.232221744 
2.3334263672 2.426721652 2.5115728246 1.4671972081 1.3575464161 1.24411054 1.1296873865 1.0172219679 0.90937090954 
0.80816628637 0.71487100155 0.63001982895 2.6824132222 2.7864913217 2.8992382033 3.0186096618 3.1415926536 3.0186096618 
2.8992382033 2.7864913217 2.6824132222 0.45917943135 0.35510133185 0.2423544503 0.12298299178 0 0.12298299178 
0.2423544503 0.35510133185 0.45917943135 0.22715816343 0.49462574053 0.3129712797 0.77059342779 0.68021497688 0.49462574053 
1.0172219679 1.0172219679 1.0172219679 1.0172219679 1.2156949949 1.271087727 1.3676273807 1.5707963268 2.1243706857 
1.3676273807 1.447813335 1.5707963268 1.7739652728 2.1243706857 2.6469669131 1.4827341049 1.5707963268 1.6937793186 
1.8705049266 2.1243706857 2.4613776767 2.8286213739 1.5707963268 1.6588585487 1.7739652728 1.9258976586 2.1243706857 
2.3709992258 2.6469669131 2.9144344902 0.26576171152 0.33975332011 0.45685295248 0.40226393329 0.51573716537 0.6552068806 
0.45538277901 0.56421707518 0.69407236469 0.84594095064 0.50083690068 0.60464862014 0.72561863695 0.86392567495 1.0172219679 
0.54002084522 0.63877777351 0.75168694275 0.87851444325 1.0172219679 1.1636342747 0.57404952988 0.66790778838 0.77356233629 
0.89058134991 1.0172219679 1.1502619915 1.2852923014 0.60381225391 0.69302191562 0.79216440667 0.90072551443 1.0172219679 
1.139116835 1.2630228569 1.3852070904 0.71487100155 0.80816628637 0.80816628637 0.90937090954 0.90937090954 0.90937090954 
1.0172219679 1.0172219679 1.0172219679 1.0172219679 1.1296873865 1.1296873865 1.1296873865 1.1296873865 1.1296873865 
1.24411054 1.24411054 1.24411054 1.24411054 1.24411054 1.24411054 1.3575464161 1.3575464161 1.3575464161 
1.3575464161 1.3575464161 1.3575464161 1.3575464161 1.4671972081 1.4671972081 1.4671972081 1.4671972081 1.4671972081 
1.4671972081 1.4671972081 1.4671972081 1.6743954455 1.6743954455 1.7840462375 1.6743954455 1.7840462375 1.8974821136 
1.6743954455 1.7840462375 1.8974821136 2.0119052671 1.6743954455 1.7840462375 1.8974821136 2.0119052671 2.1243706857 
1.6743954455 1.7840462375 1.8974821136 2.0119052671 2.1243706857 2.232221744 1.6743954455 1.7840462375 1.8974821136 
2.0119052671 2.1243706857 2.232221744 2.3334263672 1.6743954455 1.7840462375 1.8974821136 2.0119052671 2.1243706857 
2.232221744 2.3334263672 2.426721652 1.7563855631 1.8785697967 1.8563003522 2.0024758186 1.9913306621 1.9779583789 
2.1243706857 2.1243706857 2.1243706857 2.1243706857 2.2408671392 2.2510113037 2.2630782103 2.2776669786 2.295651703 
2.3494282469 2.3680303173 2.3899057108 2.4159740166 2.4475202889 2.486385773 2.448570738 2.4736848652 2.5028148801 
2.5369440334 2.5773755784 2.6258554882 2.6847397011 2.5377803997 2.5675431237 2.6015718084 2.6407557529 2.6862098746 
2.7393287203 2.8018393335 2.8758309421 2.718901062 2.8307207459 2.7598010554 2.95115522 2.8800620952 2.8058000847 
3.0774230472 3.00855263 2.9351694502 2.8576792927 3.0774230472 3.1415926536 3.0719036933 2.9967168029 2.91630358 
2.95115522 3.00855263 3.0719036933 3.1415926536 3.0653475414 2.9825888767 2.8307207459 2.8800620952 2.9351694502 
2.9967168029 3.0653475414 3.1415926536 3.0574329311 2.718901062 2.7598010554 2.8058000847 2.8576792927 2.91630358 
2.9825888767 3.0574329311 3.1415926536 2.718901062 2.7598010554 2.8307207459 2.8058000847 2.8800620952 2.95115522 
2.8576792927 2.9351694502 3.00855263 3.0774230472 2.91630358 2.9967168029 3.0719036933 3.1415926536 3.0774230472 
2.9825888767 3.0653475414 3.1415926536 3.0719036933 3.00855263 2.95115522 3.0574329311 3.1415926536 3.0653475414 