# vtk DataFile Version 5.1
vtk output
ASCII
DATASET POLYDATA
POINTS 100 float
-3.39692 4.61039 1.1805 -3.40229 4.60732 1.17585 -3.41945 4.59558 1.16597 
-3.44915 4.57399 1.15166 -3.4924 4.54081 1.13414 -3.55037 4.49406 1.11493 
-3.62408 4.43187 1.09572 -3.71426 4.35279 1.07815 -3.82117 4.25603 1.06372 
-3.94452 4.14158 1.05355 -4.08352 4.01025 1.04832 -4.23697 3.86351 1.04818 
-4.40343 3.70326 1.05273 -4.58145 3.5316 1.0611 -4.76976 3.35052 1.07201 
-4.96747 3.16169 1.08392 -5.1741 2.96633 1.09524 -5.38966 2.76517 1.10446 
-5.61452 2.5585 1.11035 -5.84928 2.34631 1.11203 -6.09461 2.12847 1.10905 
-6.35101 1.90489 1.10141 -6.61871 1.67562 1.08946 -6.89756 1.44097 1.07383 
-7.18698 1.20148 1.05527 -7.48611 0.957839 1.03448 -7.79388 0.710798 1.01205 
-8.10918 0.46104 0.98831 -8.4311 0.209088 0.963332 -8.75898 -0.0447484 0.93693 
-9.09256 -0.300362 0.908745 -9.43199 -0.557784 0.878349 -9.77772 -0.817073 0.845375 
-10.1305 -1.0782 0.809626 -10.491 -1.34094 0.77117 -10.8602 -1.60482 0.730368 
-11.2385 -1.86913 0.687859 -11.6266 -2.13302 0.644476 -12.0248 -2.39566 0.60112 
-12.4333 -2.65644 0.558609 -12.8526 -2.91517 0.517509 -13.2832 -3.17232 0.477998 
-13.7259 -3.42911 0.439758 -14.1814 -3.6876 0.401926 -14.6508 -3.95062 0.363114 
-15.1347 -4.22164 0.321487 -15.6334 -4.50458 0.274889 -16.1465 -4.80344 0.221019 
-16.6724 -5.12209 0.157614 -17.2086 -5.4639 0.0826434 -17.7513 -5.83148 -0.00552697 
-18.2956 -6.22652 -0.107993 -18.8362 -6.64962 -0.225221 -19.3675 -7.10024 -0.356996 
-19.8841 -7.5768 -0.502426 -20.3817 -8.07678 -0.659984 -20.857 -8.59691 -0.827592 
-21.3085 -9.13346 -1.00275 -21.7359 -9.68254 -1.18265 -22.1405 -10.2404 -1.3644 
-22.5246 -10.8037 -1.54513 -22.8909 -11.3698 -1.7222 -23.2419 -11.9371 -1.89339 
-23.5795 -12.5049 -2.05697 -23.9047 -13.0734 -2.21186 -24.2171 -13.6438 -2.35766 
-24.5152 -14.2181 -2.49469 -24.7965 -14.7982 -2.62387 -25.0582 -15.3865 -2.7467 
-25.2975 -15.9845 -2.86502 -25.5124 -16.5933 -2.98091 -25.7018 -17.2127 -3.0964 
-25.8659 -17.8417 -3.21337 -26.0064 -18.4779 -3.33332 -26.126 -19.1181 -3.45724 
-26.2281 -19.7586 -3.58557 -26.3164 -20.3951 -3.71816 -26.3942 -21.0236 -3.85431 
-26.4643 -21.6403 -3.99281 -26.5284 -22.2421 -4.13212 -26.5873 -22.8266 -4.27045 
-26.6412 -23.3919 -4.40588 -26.6898 -23.9368 -4.53652 -26.7329 -24.4602 -4.66059 
-26.7708 -24.9611 -4.77651 -26.8046 -25.4379 -4.88294 -26.8364 -25.8891 -4.97886 
-26.869 -26.3124 -5.06358 -26.9056 -26.7053 -5.13673 -26.9496 -27.0654 -5.19831 
-27.0032 -27.3901 -5.24866 -27.0677 -27.6778 -5.28844 -27.1423 -27.9271 -5.31861 
-27.2244 -28.1381 -5.34037 -27.3096 -28.3115 -5.35507 -27.3921 -28.4488 -5.36413 
-27.4654 -28.5521 -5.36894 -27.523 -28.6235 -5.37074 -27.5598 -28.6652 -5.37052 
-27.5722 -28.6783 -5.36891 
LINES 2 100
OFFSETS vtktypeint64
0 100 
CONNECTIVITY vtktypeint64
0 1 2 3 4 5 6 7 8 
9 10 11 12 13 14 15 16 17 
18 19 20 21 22 23 24 25 26 
27 28 29 30 31 32 33 34 35 
36 37 38 39 40 41 42 43 44 
45 46 47 48 49 50 51 52 53 
54 55 56 57 58 59 60 61 62 
63 64 65 66 67 68 69 70 71 
72 73 74 75 76 77 78 79 80 
81 82 83 84 85 86 87 88 89 
90 91 92 93 94 95 96 97 98 
99 
POINT_DATA 100
FIELD FieldData 3
_theta 1 100 double
0 0.031733259127 0.063466518254 0.095199777382 0.12693303651 0.15866629564 0.19039955476 0.22213281389 0.25386607302 
0.28559933214 0.31733259127 0.3490658504 0.38079910953 0.41253236865 0.44426562778 0.47599888691 0.50773214603 0.53946540516 
0.57119866429 0.60293192342 0.63466518254 0.66639844167 0.6981317008 0.72986495992 0.76159821905 0.79333147818 0.82506473731 
0.85679799643 0.88853125556 0.92026451469 0.95199777382 0.98373103294 1.0154642921 1.0471975512 1.0789308103 1.1106640695 
1.1423973286 1.1741305877 1.2058638468 1.237597106 1.2693303651 1.3010636242 1.3327968833 1.3645301425 1.3962634016 
1.4279966607 1.4597299198 1.491463179 1.5231964381 1.5549296972 1.5866629564 1.6183962155 1.6501294746 1.6818627337 
1.7135959929 1.745329252 1.7770625111 1.8087957702 1.8405290294 1.8722622885 1.9039955476 1.9357288068 1.9674620659 
1.999195325 2.0309285841 2.0626618433 2.0943951024 2.1261283615 2.1578616206 2.1895948798 2.2213281389 2.253061398 
2.2847946572 2.3165279163 2.3482611754 2.3799944345 2.4117276937 2.4434609528 2.4751942119 2.506927471 2.5386607302 
2.5703939893 2.6021272484 2.6338605076 2.6655937667 2.6973270258 2.7290602849 2.7607935441 2.7925268032 2.8242600623 
2.8559933214 2.8877265806 2.9194598397 2.9511930988 2.982926358 3.0146596171 3.0463928762 3.0781261353 3.1098593945 
3.1415926536 
_radius 1 100 double
1.270126195e-14 0.28280955845 0.56571729172 0.84868589901 1.1314271086 1.4132987059 1.6932466389 1.9698148859 2.2412337525 
2.5055772444 2.7609596474 3.0057277523 3.2386033818 3.4587431973 3.6657071731 3.8593558943 4.0397183896 4.2068772672 
4.3609054933 4.5018667426 4.6298691328 4.7451474177 4.8481435937 4.9395594867 5.0203648213 5.0917568271 5.1550780949 
5.2117047984 5.2629176371 5.309766302 5.3529383254 5.3926453337 5.4285416359 5.4596892032 5.4845787211 5.5012097783 
5.5072268434 5.5001036206 5.4773667251 5.4368476009 5.3769459322 5.2968786786 5.1968812748 5.0783276066 4.9437451144 
4.7967172249 4.6416813455 4.4836430621 4.3278356707 4.179359824 4.0428399751 3.9221286503 3.8200738515 3.7383460372 
3.6773190886 3.6360310723 3.6122928293 3.6030002463 3.6046144232 3.6136813336 3.6272552201 3.6431528185 3.6600311473 
3.6773163911 3.6950209806 3.713485833 3.7330853817 3.7539379754 3.7756706206 3.7972875833 3.817179613 3.8332823413 
3.8433550702 3.8453177364 3.837567353 3.8192012881 3.7900990281 3.7508462701 3.702515548 3.6463409834 3.5833407718 
3.5139518942 3.4377490718 3.3533211569 3.2583622751 3.1499906145 3.0252398835 2.8816071928 2.7175209225 2.5326215504 
2.3278073078 2.1050582401 1.8670998621 1.6169941811 1.357749879 1.0920267168 0.82197643295 0.54922182024 0.27494005857 
4.7544366117e-14 
_area 1 100 double
0 0.23522280397 0.93823138058 2.100717155 3.7079105507 5.7377161545 8.1602627026 10.938181781 14.027743093 
17.380875556 20.948008767 24.681348452 28.537610724 32.478840634 36.470418357 40.476746036 44.456431009 48.359124777 
52.125740472 55.693077748 59.002712456 62.012084773 64.703865555 67.089439777 69.204487125 71.098240939 72.820944889 
74.414400882 75.908044563 77.319477736 78.656349988 79.917034503 81.089654047 82.150699912 83.064476987 83.783317275 
84.247815753 84.387590888 84.124772199 83.382031473 82.094870972 80.225990955 77.778219723 74.801791199 71.392788961 
67.682590785 63.821377614 59.960202826 56.235750525 52.761006246 49.623317508 46.88789837 44.602026399 42.794581186 
41.465973037 40.573639391 40.035642346 39.755102628 39.641916679 39.624070652 39.652827432 39.703465121 39.771628466 
39.866533505 40.003600873 40.19850389 40.462360341 40.79655981 41.187139798 41.600974534 41.986684478 42.28157382 
42.423382443 42.363480566 42.076874278 41.564745577 40.848111831 39.955921073 38.914488334 37.743935602 36.461083277 
35.082454015 33.621147064 32.077094391 30.427227585 28.625078856 26.614544184 24.352696521 21.830767968 19.084955115 
16.194671254 13.270344846 10.435232167 7.8066160542 5.4812740598 3.5282411237 1.9892148414 0.88448906223 0.22107377902 
2.7106691471e-13 
