# vtk DataFile Version 5.1
vtk output
ASCII
DATASET POLYDATA
POINTS 1002 float
-9.96853 0.0474406 -3.15576 10.27 -1.01488 -2.56614 -9.47871 0.960543 3.54373 
9.71067 -0.987191 2.10512 -2.72055 1.91526 -2.0257 -2.14718 1.59103 1.13031 
-1.09627 -6.29331 -1.87823 -0.852652 -7.07011 1.87717 17.865 8.13328 0.655102 
-14.5376 7.63831 0.540708 16.8139 -0.850606 0.160532 -14.5896 -3.68992 0.0178333 
-8.83908 -0.294523 -3.17692 -7.51672 -0.745218 -3.18286 -5.98613 -1.27468 -3.10317 
-4.14899 -1.81071 -2.99852 -1.82975 -2.3139 -2.98631 0.938788 -2.66841 -3.01197 
3.74726 -2.66473 -3.00849 6.22111 -2.28325 -2.97804 8.35459 -1.69414 -2.84186 
-9.68451 0.560256 -3.19196 -9.27672 1.08395 -3.2049 -8.74468 1.62038 -3.27045 
-8.10388 2.0925 -3.35214 -7.26737 2.39422 -3.30003 -6.16574 2.6009 -3.09908 
-5.0531 2.77843 -2.86055 -4.21403 2.75103 -2.60248 -3.52792 2.41348 -2.30596 
-9.51002 -0.667894 -3.07149 -8.92988 -1.42901 -2.97011 -8.19337 -2.22717 -2.85717 
-7.30642 -3.03958 -2.68222 -6.30079 -3.80719 -2.48134 -5.20555 -4.47849 -2.33386 
-4.09062 -5.04901 -2.18594 -3.0238 -5.52909 -2.01614 -2.02028 -5.93631 -1.91095 
-10.8907 0.701376 -3.18741 -11.8691 1.4621 -3.169 -12.83 2.33455 -2.99739 
-13.6424 3.32117 -2.66145 -14.269 4.39183 -2.26861 -14.7517 5.39239 -1.8345 
-15.0559 6.19623 -1.27784 -15.1129 6.84576 -0.632134 -14.9201 7.3541 -0.00881517 
-10.7446 -0.124224 -3.08471 -11.4963 -0.365823 -2.95101 -12.2532 -0.652647 -2.78866 
-13.0028 -0.997107 -2.59553 -13.6416 -1.42081 -2.28732 -14.1207 -1.89256 -1.91755 
-14.4579 -2.3884 -1.58606 -14.6418 -2.90059 -1.18114 -14.6719 -3.35987 -0.610023 
9.79456 -0.76976 -2.62514 9.10691 -0.570937 -2.63741 8.22725 -0.454438 -2.58808 
7.08711 -0.384334 -2.57254 5.51287 -0.313279 -2.61985 3.54922 -0.272312 -2.58543 
1.57108 -0.195201 -2.43064 -0.137456 0.156286 -2.27019 -1.56024 0.903761 -2.14404 
9.44814 -1.71804 -2.68317 8.47984 -2.44908 -2.79038 7.34065 -3.21879 -2.88729 
6.0306 -3.96182 -2.90903 4.62325 -4.5712 -2.83375 3.24032 -5.06198 -2.71374 
1.96027 -5.49462 -2.56001 0.805576 -5.84423 -2.35611 -0.21214 -6.09701 -2.12006 
11.9514 -0.0214167 -2.2457 13.6665 1.21875 -1.96093 15.1356 2.61672 -1.84694 
16.3107 4.04706 -1.76046 17.3164 5.42376 -1.51578 18.0725 6.67475 -1.24267 
18.4618 7.69401 -1.00038 18.5248 8.32228 -0.582409 18.3065 8.44501 0.0393269 
11.6149 -0.705569 -2.32717 12.8978 -0.347179 -2.10016 14.0842 0.010153 -1.88392 
15.15 0.283252 -1.64367 16.0179 0.43663 -1.38979 16.6258 0.454878 -1.14422 
16.9982 0.277914 -0.858003 17.1571 -0.0762701 -0.515308 17.0849 -0.477858 -0.169989 
-8.34883 0.535874 3.57271 -7.04328 0.015197 3.5221 -5.52571 -0.642724 3.33779 
-3.74578 -1.43056 2.96151 -1.64832 -2.145 2.52081 0.74067 -2.54031 2.2038 
3.23922 -2.56015 1.97027 5.63751 -2.25353 1.80229 7.81618 -1.69064 1.84706 
-9.00332 1.31734 3.42365 -8.5023 1.71185 3.30676 -7.91477 2.14094 3.19444 
-7.20678 2.50547 3.03588 -6.41067 2.6783 2.7941 -5.57351 2.66223 2.46385 
-4.71372 2.52231 2.08784 -3.84493 2.2663 1.73925 -2.98706 1.92605 1.43038 
-9.26375 0.344208 3.67433 -8.89239 -0.416034 3.67104 -8.26019 -1.3763 3.44367 
-7.37566 -2.4351 3.14146 -6.3013 -3.46967 2.9615 -5.04067 -4.46828 2.84141 
-3.69957 -5.3885 2.66862 -2.51755 -6.13631 2.45532 -1.59748 -6.68788 2.19612 
-10.2424 1.59665 3.39251 -11.0317 2.31765 3.21168 -11.8068 3.08099 2.99769 
-12.5114 3.85999 2.74124 -13.1673 4.66503 2.48239 -13.7622 5.45352 2.24595 
-14.2074 6.18222 1.95081 -14.4839 6.84504 1.53238 -14.6011 7.3635 1.03806 
-10.4888 0.932034 3.51869 -11.5888 0.770516 3.37952 -12.6845 0.424833 3.16386 
-13.6982 -0.118735 2.90027 -14.5212 -0.767871 2.51496 -15.0465 -1.40786 1.99891 
-15.285 -2.07489 1.49138 -15.2652 -2.78614 1.03769 -15.0011 -3.37166 0.550291 
8.99142 -0.896194 2.00014 8.09439 -0.857041 1.82586 7.02092 -0.858913 1.60238 
5.74894 -0.859968 1.40291 4.27876 -0.765857 1.33927 2.74155 -0.50482 1.41671 
1.30748 -0.110391 1.461 0.0146641 0.358844 1.37246 -1.14987 0.916199 1.23484 
9.1884 -1.58453 1.98504 8.4725 -2.22784 1.90456 7.55371 -2.93761 1.87301 
6.4634 -3.71502 1.78818 5.20154 -4.45664 1.63448 3.82727 -5.07856 1.57105 
2.52564 -5.63204 1.66031 1.36635 -6.16974 1.78957 0.25075 -6.66462 1.86728 
11.0791 -0.0891033 2.37257 12.4774 0.965442 2.55877 13.8756 2.10995 2.63191 
15.1752 3.3241 2.66178 16.263 4.56876 2.58731 17.0852 5.67711 2.33283 
17.6084 6.57412 2.00659 17.8614 7.33809 1.65048 17.9344 7.91084 1.1885 
11.1805 -0.607073 2.3433 12.5979 -0.282267 2.51633 13.8632 -0.0539943 2.54019 
14.9377 0.0777936 2.41532 15.8406 0.0846457 2.20101 16.4997 -0.0191055 1.91376 
16.8378 -0.157477 1.53117 16.9591 -0.329997 1.07446 16.9661 -0.569726 0.602682 
-2.72261 2.24956 -1.78025 -2.56774 2.53779 -1.53504 -2.37235 2.76603 -1.31552 
-2.29874 2.88766 -1.01879 -2.29093 2.84154 -0.573364 -2.22944 2.67335 -0.120378 
-2.17026 2.45543 0.232719 -2.16972 2.1833 0.550319 -2.17522 1.87587 0.86331 
-0.82249 0.893174 -1.91438 1.75212 0.55346 -1.89757 4.65116 1.08251 -1.75797 
7.5093 1.98151 -1.32593 10.2155 2.88138 -0.786382 12.5875 3.99145 -0.38431 
14.4298 5.32237 -0.109153 15.8439 6.55591 0.126298 16.9842 7.51616 0.371376 
-4.18321 3.45156 -2.09444 -5.44342 4.91694 -2.13618 -6.6329 5.87548 -1.95675 
-7.88814 6.42744 -1.5422 -9.21281 6.919 -1.13186 -10.468 7.40177 -0.83337 
-11.6011 7.76817 -0.515462 -12.6893 7.96187 -0.13186 -13.7108 7.92366 0.23615 
-0.57958 0.939002 0.893705 1.34727 0.61249 0.686154 3.59326 0.701579 0.582499 
6.14094 1.21137 0.71551 8.90015 2.16604 1.03 11.5229 3.49921 1.25049 
13.6717 4.93023 1.25996 15.3619 6.20792 1.15229 16.7476 7.27975 0.961653 
-3.52052 2.69529 1.28478 -4.80436 4.04366 1.52075 -6.06576 5.3286 1.73418 
-7.35979 6.36472 1.86203 -8.64419 7.15511 1.90687 -9.90439 7.65539 1.81088 
-11.1641 7.88629 1.55449 -12.3982 7.9801 1.22503 -13.5493 7.92405 0.883851 
-1.07558 -6.63181 -1.69445 -1.09229 -7.00651 -1.45226 -1.17337 -7.38713 -1.14047 
-1.29014 -7.72482 -0.744885 -1.37091 -7.95672 -0.243283 -1.41821 -8.02211 0.323547 
-1.43956 -7.93502 0.847412 -1.34658 -7.74434 1.2735 -1.11399 -7.45146 1.6143 
0.377267 -6.49708 -1.99347 2.05296 -6.57712 -2.02706 3.94069 -6.4776 -1.98903 
5.92819 -6.3182 -1.99748 7.927 -6.04899 -1.98583 10.0796 -5.29224 -1.71694 
12.3765 -4.03777 -1.2099 14.4108 -2.76328 -0.679859 15.8699 -1.72543 -0.223026 
-2.52089 -6.26182 -1.64335 -4.06983 -6.22728 -1.42566 -5.69067 -6.16133 -1.28428 
-7.27202 -6.02055 -1.20269 -8.77543 -5.78732 -1.06102 -10.227 -5.43749 -0.836289 
-11.5572 -4.99655 -0.637431 -12.6942 -4.57047 -0.463559 -13.6915 -4.17293 -0.238525 
0.659786 -7.08716 1.51881 2.53635 -6.94292 1.15808 4.70347 -6.65751 0.866893 
6.93722 -6.30916 0.674126 9.10872 -5.86216 0.624891 11.2109 -5.11106 0.683963 
13.1487 -4.01894 0.670576 14.736 -2.83568 0.506834 15.9163 -1.77353 0.305168 
-2.40535 -7.17539 2.02349 -4.06377 -7.16964 2.04575 -5.80924 -7.05122 1.96217 
-7.60134 -6.77442 1.87936 -9.36312 -6.38489 1.80217 -10.9162 -6.00102 1.59926 
-12.1304 -5.55405 1.2541 -13.0797 -4.95585 0.867495 -13.8898 -4.30586 0.46058 
18.8791 8.6995 0.603171 19.7624 8.71902 0.571348 20.5084 7.95329 0.637136 
20.9802 6.6966 0.762053 20.9421 5.42464 0.791997 20.4609 4.18267 0.692134 
19.7449 2.86494 0.56306 18.827 1.53251 0.441721 17.8027 0.274794 0.306342 
-15.4432 7.01494 0.474286 -16.0907 6.13339 0.360376 -16.4595 5.02025 0.210357 
-16.7992 3.73498 0.0578571 -17.2002 2.45567 -0.0828993 -17.3326 1.20793 -0.219563 
-16.9967 -0.196418 -0.301925 -16.335 -1.65155 -0.261591 -15.4986 -2.84046 -0.125708 
-8.47033 0.156997 -3.25226 -7.9901 0.611931 -3.33826 -7.09548 -0.359774 -3.288 
-7.32457 1.04915 -3.40751 -6.51385 0.0291363 -3.33306 -5.4548 -0.941032 -3.16625 
-6.44908 1.37313 -3.37777 -5.63984 0.3671 -3.24431 -4.6421 -0.611622 -3.05001 
-3.29972 -1.53961 -2.98089 -5.41063 1.55079 -3.22174 -4.58631 0.566187 -3.11122 
-3.52282 -0.386678 -2.85642 -2.10621 -1.29061 -2.78644 -0.505813 -2.08336 -2.92708 
-4.34451 1.64059 -2.98197 -3.543 0.625352 -2.99708 -2.3391 -0.311479 -2.83151 
-0.721389 -1.14403 -2.7001 1.00405 -1.81633 -2.82187 2.54349 -2.32254 -2.99448 
-3.40491 1.56372 -2.69005 -2.50949 0.546357 -2.79719 -1.15799 -0.297726 -2.84746 
0.695179 -1.00688 -2.79968 2.5541 -1.51147 -2.82687 4.08739 -1.83633 -2.97797 
5.2979 -2.08017 -3.04589 -2.5362 1.26047 -2.38933 -1.38532 0.332726 -2.51143 
0.144682 -0.280804 -2.68291 2.12965 -0.709637 -2.7913 4.10308 -1.02366 -2.79969 
5.62239 -1.20376 -2.85054 6.75386 -1.33171 -2.94018 7.66092 -1.496 -2.93297 
-10.6145 1.31543 -3.16103 -11.5864 2.17452 -3.09195 -10.1649 1.95222 -3.11293 
-12.5084 3.14936 -2.90006 -11.0955 2.91741 -3.01212 -9.61961 2.6068 -3.15161 
-13.2634 4.25254 -2.54258 -11.9616 3.99097 -2.79893 -10.5217 3.67185 -2.98975 
-9.0047 3.14886 -3.18084 -13.7967 5.36933 -2.09147 -12.614 5.14405 -2.40346 
-11.2428 4.79652 -2.68701 -9.80916 4.28922 -2.89499 -8.08263 3.50756 -3.04982 
-14.0854 6.28949 -1.57708 -12.954 6.17412 -1.90046 -11.6337 5.86199 -2.22576 
-10.2578 5.4099 -2.48991 -8.70716 4.7293 -2.70414 -6.82834 3.81862 -2.85399 
-14.1382 6.9958 -0.975887 -13.0106 6.94176 -1.33175 -11.7487 6.68177 -1.67125 
-10.3959 6.29186 -1.97162 -8.99649 5.77458 -2.27241 -7.39573 5.04968 -2.55402 
-5.69827 4.03752 -2.67612 -13.9999 7.56145 -0.346029 -12.9001 7.5304 -0.720011 
-11.7229 7.28327 -1.07764 -10.4531 6.89793 -1.38163 -9.11003 6.44117 -1.71445 
-7.72819 5.91729 -2.11599 -6.30332 5.14938 -2.39962 -4.90672 3.92512 -2.42469 
-12.6138 8.15079 0.543106 -11.3778 8.17771 0.84327 -11.5353 8.13355 0.114122 
-10.0736 8.08735 1.15576 -10.2486 8.18142 0.354042 -10.4282 7.89645 -0.302845 
-8.78953 7.78056 1.43709 -8.90019 8.06804 0.659292 -9.09226 7.91177 -0.0881413 
-9.239 7.43544 -0.624908 -7.52558 7.09332 1.56931 -7.5985 7.58785 0.982631 
-7.6784 7.67367 0.201736 -7.80867 7.36085 -0.457091 -7.88574 6.86494 -0.990807 
-6.22092 6.03229 1.49667 -6.31907 6.62704 1.11072 -6.34297 6.97894 0.46956 
-6.36097 7.02774 -0.279336 -6.43632 6.74744 -0.913311 -6.56322 6.31236 -1.45562 
-4.91089 4.6503 1.27309 -5.00364 5.22137 0.961692 -5.06539 5.6926 0.509387 
[...]
POINT_DATA 1002
FIELD FieldData 4
_paraPhi 1 1002 double
6.2831853072 3.1415926536 6.2831853072 3.1415926536 4.7123889804 4.7123889804 1.5707963268 1.5707963268 3.6951670125 
5.7296109483 2.5880182947 0.5535743589 6.2831853072 6.2831853072 6.2831853072 6.2831853072 3.1415926536 3.1415926536 
3.1415926536 3.1415926536 3.1415926536 6.1053039672 5.898798347 5.6768734901 5.4599499503 5.2659633393 5.1032165617 
4.9713148346 4.8656852733 4.7809517865 0.17788134 0.38438696014 0.60631181711 0.82323535693 1.0172219679 1.1799687454 
1.3118704726 1.4175000338 1.5022335207 6.1892828907 6.1070320098 6.035312792 5.9728339911 5.9183214791 5.8706119594 
5.8286879411 5.7916808611 5.7588591896 0.093902416448 0.17615329733 0.2478725152 0.31035131605 0.36486382811 0.41257334776 
0.45449736604 0.4915044461 0.52432611754 3.3194739936 3.5259796137 3.7479044707 3.9648280105 4.1588146215 4.321561399 
4.4534631262 4.5590926874 4.6438261743 2.9637113136 2.7572056934 2.5352808365 2.3183572967 2.1243706857 1.9616239082 
1.829722181 1.7240926197 1.6393591329 3.23549507 3.3177459509 3.3894651688 3.4519439696 3.5064564817 3.5541660013 
3.5960900196 3.6330970997 3.6659187711 3.0476902371 2.9654393563 2.8937201384 2.8312413375 2.7767288255 2.7290193058 
2.6870952876 2.6500882075 2.617266536 6.2831853072 6.2831853072 6.2831853072 6.2831853072 3.1415926536 3.1415926536 
3.1415926536 3.1415926536 3.1415926536 6.1053039672 5.898798347 5.6768734901 5.4599499503 5.2659633393 5.1032165617 
4.9713148346 4.8656852733 4.7809517865 0.17788134 0.38438696014 0.60631181711 0.82323535693 1.0172219679 1.1799687454 
1.3118704726 1.4175000338 1.5022335207 6.1892828907 6.1070320098 6.035312792 5.9728339911 5.9183214791 5.8706119594 
5.8286879411 5.7916808611 5.7588591896 0.093902416448 0.17615329733 0.2478725152 0.31035131605 0.36486382811 0.41257334776 
0.45449736604 0.4915044461 0.52432611754 3.3194739936 3.5259796137 3.7479044707 3.9648280105 4.1588146215 4.321561399 
4.4534631262 4.5590926874 4.6438261743 2.9637113136 2.7572056934 2.5352808365 2.3183572967 2.1243706857 1.9616239082 
1.829722181 1.7240926197 1.6393591329 3.23549507 3.3177459509 3.3894651688 3.4519439696 3.5064564817 3.5541660013 
3.5960900196 3.6330970997 3.6659187711 3.0476902371 2.9654393563 2.8937201384 2.8312413375 2.7767288255 2.7290193058 
2.6870952876 2.6500882075 2.617266536 4.7123889804 4.7123889804 4.7123889804 4.7123889804 4.7123889804 4.7123889804 
4.7123889804 4.7123889804 4.7123889804 4.6087898617 4.4991390697 4.3857031936 4.2712800401 4.1588146215 4.0509635631 
3.94975894 3.8564636551 3.7716124825 4.8159880991 4.9256388911 5.0390747672 5.1534979207 5.2659633393 5.3738143976 
5.4750190208 5.5683143056 5.6531654782 4.6087898617 4.4991390697 4.3857031936 4.2712800401 4.1588146215 4.0509635631 
3.94975894 3.8564636551 3.7716124825 4.8159880991 4.9256388911 5.0390747672 5.1534979207 5.2659633393 5.3738143976 
5.4750190208 5.5683143056 5.6531654782 1.5707963268 1.5707963268 1.5707963268 1.5707963268 1.5707963268 1.5707963268 
1.5707963268 1.5707963268 1.5707963268 1.6743954455 1.7840462375 1.8974821136 2.0119052671 2.1243706857 2.232221744 
2.3334263672 2.426721652 2.5115728246 1.4671972081 1.3575464161 1.24411054 1.1296873865 1.0172219679 0.90937090954 
0.80816628637 0.71487100155 0.63001982895 1.6743954455 1.7840462375 1.8974821136 2.0119052671 2.1243706857 2.232221744 
2.3334263672 2.426721652 2.5115728246 1.4671972081 1.3575464161 1.24411054 1.1296873865 1.0172219679 0.90937090954 
0.80816628637 0.71487100155 0.63001982895 3.6007720849 3.4966939854 3.3839471039 3.2645756454 3.1415926536 3.0186096618 
2.8992382033 2.7864913217 2.6824132222 5.8240058758 5.9280839753 6.0408308569 6.1602023154 6.2831853072 0.12298299178 
0.2423544503 0.35510133185 0.45917943135 6.0560271438 5.7885595667 5.9702140275 5.5125918794 5.6029703303 5.7885595667 
5.2659633393 5.2659633393 5.2659633393 5.2659633393 5.0674903122 5.0120975802 4.9155579264 4.7123889804 4.1588146215 
4.9155579264 4.8353719722 4.7123889804 4.5092200343 4.1588146215 3.6362183941 4.8004512023 4.7123889804 4.5894059886 
4.4126803806 4.1588146215 3.8218076305 3.4545639333 4.7123889804 4.6243267584 4.5092200343 4.3572876485 4.1588146215 
3.9121860814 3.6362183941 3.368750817 6.0174235957 5.9434319871 5.8263323547 5.8809213739 5.7674481418 5.6279784266 
5.8278025282 5.718968232 5.5891129425 5.4372443565 5.7823484065 5.678536687 5.5575666702 5.4192596322 5.2659633393 
5.743164462 5.6444075337 5.5314983644 5.4046708639 5.2659633393 5.1195510325 5.7091357773 5.6152775188 5.5096229709 
5.3926039573 5.2659633393 5.1329233157 4.9978930058 5.6793730533 5.5901633916 5.4910209005 5.3824597928 5.2659633393 
5.1440684722 5.0201624502 4.8979782167 5.5683143056 5.4750190208 5.4750190208 5.3738143976 5.3738143976 5.3738143976 
5.2659633393 5.2659633393 5.2659633393 5.2659633393 5.1534979207 5.1534979207 5.1534979207 5.1534979207 5.1534979207 
5.0390747672 5.0390747672 5.0390747672 5.0390747672 5.0390747672 5.0390747672 4.9256388911 4.9256388911 4.9256388911 
4.9256388911 4.9256388911 4.9256388911 4.9256388911 4.8159880991 4.8159880991 4.8159880991 4.8159880991 4.8159880991 
4.8159880991 4.8159880991 4.8159880991 4.6087898617 4.6087898617 4.4991390697 4.6087898617 4.4991390697 4.3857031936 
4.6087898617 4.4991390697 4.3857031936 4.2712800401 4.6087898617 4.4991390697 4.3857031936 4.2712800401 4.1588146215 
4.6087898617 4.4991390697 4.3857031936 4.2712800401 4.1588146215 4.0509635631 4.6087898617 4.4991390697 4.3857031936 
4.2712800401 4.1588146215 4.0509635631 3.94975894 4.6087898617 4.4991390697 4.3857031936 4.2712800401 4.1588146215 
4.0509635631 3.94975894 3.8564636551 4.526799744 4.4046155105 4.426884955 4.2807094886 4.2918546451 4.3052269283 
4.1588146215 4.1588146215 4.1588146215 4.1588146215 4.042318168 4.0321740035 4.0201070968 4.0055183285 3.9875336042 
3.9337570603 3.9151549899 3.8932795963 3.8672112905 3.8356650183 3.7967995342 3.8346145692 3.809500442 3.7803704271 
3.7462412737 3.7058097288 3.657329819 3.5984456061 3.7454049075 3.7156421835 3.6816134988 3.6424295543 3.5969754326 
3.5438565869 3.4813459737 3.4073543651 3.5642842451 3.4524645613 3.5233842518 3.3320300872 3.403123212 3.4773852225 
3.20576226 3.2746326772 3.348015857 3.4255060145 3.0774230472 3.1415926536 3.2112816139 3.2864685043 3.3668817272 
2.95115522 3.00855263 3.0719036933 3.1415926536 3.2178377658 3.3005964304 2.8307207459 2.8800620952 2.9351694502 
2.9967168029 3.0653475414 3.1415926536 3.225752376 2.718901062 2.7598010554 2.8058000847 2.8576792927 2.91630358 
2.9825888767 3.0574329311 3.1415926536 3.5642842451 3.5233842518 3.4524645613 3.4773852225 3.403123212 3.3320300872 
3.4255060145 3.348015857 3.2746326772 3.20576226 3.3668817272 3.2864685043 3.2112816139 3.1415926536 3.0774230472 
3.3005964304 3.2178377658 3.1415926536 3.0719036933 3.00855263 2.95115522 3.225752376 3.1415926536 3.0653475414 
2.9967168029 2.9351694502 2.8800620952 2.8307207459 3.1415926536 3.0574329311 2.9825888767 2.91630358 2.8576792927 
2.8058000847 2.7598010554 2.718901062 4.526799744 4.426884955 4.4046155105 4.3052269283 4.2918546451 4.2807094886 
4.1588146215 4.1588146215 4.1588146215 4.1588146215 3.9875336042 4.0055183285 4.0201070968 4.0321740035 4.042318168 
3.7967995342 3.8356650183 3.8672112905 3.8932795963 3.9151549899 3.9337570603 3.5984456061 3.657329819 3.7058097288 
3.7462412737 3.7803704271 3.809500442 3.8346145692 3.4073543651 3.4813459737 3.5438565869 3.5969754326 3.6424295543 
3.6816134988 3.7156421835 3.7454049075 4.7123889804 4.8004512023 4.6243267584 4.9155579264 4.7123889804 4.5092200343 
5.0674903122 4.8353719722 4.5894059886 4.3572876485 5.2659633393 5.0120975802 4.7123889804 4.4126803806 4.1588146215 
5.5125918794 5.2659633393 4.9155579264 4.5092200343 4.1588146215 3.9121860814 5.7885595667 5.6029703303 5.2659633393 
4.7123889804 4.1588146215 3.8218076305 3.6362183941 6.0560271438 5.9702140275 5.7885595667 5.2659633393 4.1588146215 
3.6362183941 3.4545639333 3.368750817 0.22715816343 0.49462574053 0.3129712797 0.77059342779 0.68021497688 0.49462574053 
1.0172219679 1.0172219679 1.0172219679 1.0172219679 1.2156949949 1.271087727 1.3676273807 1.5707963268 2.1243706857 
1.3676273807 1.447813335 1.5707963268 1.7739652728 2.1243706857 2.6469669131 1.4827341049 1.5707963268 1.6937793186 
1.8705049266 2.1243706857 2.4613776767 2.8286213739 1.5707963268 1.6588585487 1.7739652728 1.9258976586 2.1243706857 
2.3709992258 2.6469669131 2.9144344902 1.7563855631 1.8785697967 1.8563003522 2.0024758186 1.9913306621 1.9779583789 
2.1243706857 2.1243706857 2.1243706857 2.1243706857 2.2408671392 2.2510113037 2.2630782103 2.2776669786 2.295651703 
2.3494282469 2.3680303173 2.3899057108 2.4159740166 2.4475202889 2.486385773 2.448570738 2.4736848652 2.5028148801 
2.5369440334 2.5773755784 2.6258554882 2.6847397011 2.5377803997 2.5675431237 2.6015718084 2.6407557529 2.6862098746 
2.7393287203 2.8018393335 2.8758309421 1.6743954455 1.6743954455 1.7840462375 1.6743954455 1.7840462375 1.8974821136 
1.6743954455 1.7840462375 1.8974821136 2.0119052671 1.6743954455 1.7840462375 1.8974821136 2.0119052671 2.1243706857 
1.6743954455 1.7840462375 1.8974821136 2.0119052671 2.1243706857 2.232221744 1.6743954455 1.7840462375 1.8974821136 
2.0119052671 2.1243706857 2.232221744 2.3334263672 1.6743954455 1.7840462375 1.8974821136 2.0119052671 2.1243706857 
2.232221744 2.3334263672 2.426721652 1.4671972081 1.3575464161 1.4671972081 1.24411054 1.3575464161 1.4671972081 
1.1296873865 1.24411054 1.3575464161 1.4671972081 1.0172219679 1.1296873865 1.24411054 1.3575464161 1.4671972081 
0.90937090954 1.0172219679 1.1296873865 1.24411054 1.3575464161 1.4671972081 0.80816628637 0.90937090954 1.0172219679 
1.1296873865 1.24411054 1.3575464161 1.4671972081 0.71487100155 0.80816628637 0.90937090954 1.0172219679 1.1296873865 
1.24411054 1.3575464161 1.4671972081 0.60381225391 0.57404952988 0.69302191562 0.54002084522 0.66790778838 0.79216440667 
0.50083690068 0.63877777351 0.77356233629 0.90072551443 0.45538277901 0.60464862014 0.75168694275 0.89058134991 1.0172219679 
0.40226393329 0.56421707518 0.72561863695 0.87851444325 1.0172219679 1.139116835 0.33975332011 0.51573716537 0.69407236469 
0.86392567495 1.0172219679 1.1502619915 1.2630228569 0.26576171152 0.45685295248 0.6552068806 0.84594095064 1.0172219679 
1.1636342747 1.2852923014 1.3852070904 0.22715816343 0.3129712797 0.49462574053 0.49462574053 0.68021497688 0.77059342779 
1.0172219679 1.0172219679 1.0172219679 1.0172219679 2.1243706857 1.5707963268 1.3676273807 1.271087727 1.2156949949 
2.6469669131 2.1243706857 1.7739652728 1.5707963268 1.447813335 1.3676273807 2.8286213739 2.4613776767 2.1243706857 
1.8705049266 1.6937793186 1.5707963268 1.4827341049 2.9144344902 2.6469669131 2.3709992258 2.1243706857 1.9258976586 
1.7739652728 1.6588585487 1.5707963268 1.7563855631 1.8563003522 1.8785697967 1.9779583789 1.9913306621 2.0024758186 
2.1243706857 2.1243706857 2.1243706857 2.1243706857 2.295651703 2.2776669786 2.2630782103 2.2510113037 2.2408671392 
2.486385773 2.4475202889 2.4159740166 2.3899057108 2.3680303173 2.3494282469 2.6847397011 2.6258554882 2.5773755784 
2.5369440334 2.5028148801 2.4736848652 2.448570738 2.8758309421 2.8018393335 2.7393287203 2.6862098746 2.6407557529 
2.6015718084 2.5675431237 2.5377803997 5.8604937156 5.901393709 5.9723133995 5.9473927383 6.0216547488 6.0927478736 
5.9992719463 6.0767621038 6.1501452836 6.2190157008 6.0578962336 6.1383094565 6.2134963469 0 0.064169606361 
6.1241815303 6.206940195 6.2831853072 0.069688960264 0.13304002361 0.19043743361 6.1990255847 0 0.07624511221 
0.14487585072 0.20642320337 0.26153055843 0.3108719077 0 0.084159722458 0.15900377685 0.22528907359 0.28391336087 
0.3357925689 0.38179159818 0.42269159155 5.8604937156 5.9723133995 5.901393709 6.0927478736 6.0216547488 5.9473927383 
6.2190157008 6.1501452836 6.0767621038 5.9992719463 0.064169606361 0 6.2134963469 6.1383094565 6.0578962336 
0.19043743361 0.13304002361 0.069688960264 6.2831853072 6.206940195 6.1241815303 0.3108719077 0.26153055843 0.20642320337 
0.14487585072 0.07624511221 6.2831853072 6.1990255847 0.42269159155 0.38179159818 0.3357925689 0.28391336087 0.22528907359 
0.15900377685 0.084159722458 0 5.6793730533 5.7091357773 5.5901633916 5.743164462 5.6152775188 5.4910209005 
5.7823484065 5.6444075337 5.5096229709 5.3824597928 5.8278025282 5.678536687 5.5314983644 5.3926039573 5.2659633393 
5.8809213739 5.718968232 5.5575666702 5.4046708639 5.2659633393 5.1440684722 5.9434319871 5.7674481418 5.5891129425 
5.4192596322 5.2659633393 5.1329233157 5.0201624502 6.0174235957 5.8263323547 5.6279784266 5.4372443565 5.2659633393 
5.1195510325 4.9978930058 4.8979782167 1.3852070904 1.2852923014 1.2630228569 1.1636342747 1.1502619915 1.139116835 
1.0172219679 1.0172219679 1.0172219679 1.0172219679 0.84594095064 0.86392567495 0.87851444325 0.89058134991 0.90072551443 
0.6552068806 0.69407236469 0.72561863695 0.75168694275 0.77356233629 0.79216440667 0.45685295248 0.51573716537 0.56421707518 
0.60464862014 0.63877777351 0.66790778838 0.69302191562 0.26576171152 0.33975332011 0.40226393329 0.45538277901 0.50083690068 
0.54002084522 0.57404952988 0.60381225391 
_paraPhiHalf 1 1002 double
0 3.1415926536 0 3.1415926536 1.5707963268 1.5707963268 1.5707963268 1.5707963268 2.5880182947 
0.5535743589 2.5880182947 0.5535743589 0 0 0 0 3.1415926536 3.1415926536 
3.1415926536 3.1415926536 3.1415926536 0.17788134 0.38438696014 0.60631181711 0.82323535693 1.0172219679 1.1799687454 
1.3118704726 1.4175000338 1.5022335207 0.17788134 0.38438696014 0.60631181711 0.82323535693 1.0172219679 1.1799687454 
1.3118704726 1.4175000338 1.5022335207 0.093902416448 0.17615329733 0.2478725152 0.31035131605 0.36486382811 0.41257334776 
0.45449736604 0.4915044461 0.52432611754 0.093902416448 0.17615329733 0.2478725152 0.31035131605 0.36486382811 0.41257334776 
0.45449736604 0.4915044461 0.52432611754 2.9637113136 2.7572056934 2.5352808365 2.3183572967 2.1243706857 1.9616239082 
1.829722181 1.7240926197 1.6393591329 2.9637113136 2.7572056934 2.5352808365 2.3183572967 2.1243706857 1.9616239082 
1.829722181 1.7240926197 1.6393591329 3.0476902371 2.9654393563 2.8937201384 2.8312413375 2.7767288255 2.7290193058 
2.6870952876 2.6500882075 2.617266536 3.0476902371 2.9654393563 2.8937201384 2.8312413375 2.7767288255 2.7290193058 
2.6870952876 2.6500882075 2.617266536 0 0 0 0 3.1415926536 3.1415926536 
3.1415926536 3.1415926536 3.1415926536 0.17788134 0.38438696014 0.60631181711 0.82323535693 1.0172219679 1.1799687454 
1.3118704726 1.4175000338 1.5022335207 0.17788134 0.38438696014 0.60631181711 0.82323535693 1.0172219679 1.1799687454 
1.3118704726 1.4175000338 1.5022335207 0.093902416448 0.17615329733 0.2478725152 0.31035131605 0.36486382811 0.41257334776 
0.45449736604 0.4915044461 0.52432611754 0.093902416448 0.17615329733 0.2478725152 0.31035131605 0.36486382811 0.41257334776 
0.45449736604 0.4915044461 0.52432611754 2.9637113136 2.7572056934 2.5352808365 2.3183572967 2.1243706857 1.9616239082 
1.829722181 1.7240926197 1.6393591329 2.9637113136 2.7572056934 2.5352808365 2.3183572967 2.1243706857 1.9616239082 
1.829722181 1.7240926197 1.6393591329 3.0476902371 2.9654393563 2.8937201384 2.8312413375 2.7767288255 2.7290193058 
2.6870952876 2.6500882075 2.617266536 3.0476902371 2.9654393563 2.8937201384 2.8312413375 2.7767288255 2.7290193058 
2.6870952876 2.6500882075 2.617266536 1.5707963268 1.5707963268 1.5707963268 1.5707963268 1.5707963268 1.5707963268 
1.5707963268 1.5707963268 1.5707963268 1.6743954455 1.7840462375 1.8974821136 2.0119052671 2.1243706857 2.232221744 
2.3334263672 2.426721652 2.5115728246 1.4671972081 1.3575464161 1.24411054 1.1296873865 1.0172219679 0.90937090954 
0.80816628637 0.71487100155 0.63001982895 1.6743954455 1.7840462375 1.8974821136 2.0119052671 2.1243706857 2.232221744 
2.3334263672 2.426721652 2.5115728246 1.4671972081 1.3575464161 1.24411054 1.1296873865 1.0172219679 0.90937090954 
0.80816628637 0.71487100155 0.63001982895 1.5707963268 1.5707963268 1.5707963268 1.5707963268 1.5707963268 1.5707963268 
1.5707963268 1.5707963268 1.5707963268 1.6743954455 1.7840462375 1.8974821136 2.0119052671 2.1243706857 2.232221744 
2.3334263672 2.426721652 2.5115728246 1.4671972081 1.3575464161 1.24411054 1.1296873865 1.0172219679 0.90937090954 
0.80816628637 0.71487100155 0.63001982895 1.6743954455 1.7840462375 1.8974821136 2.0119052671 2.1243706857 2.232221744 
2.3334263672 2.426721652 2.5115728246 1.4671972081 1.3575464161 1.24411054 1.1296873865 1.0172219679 0.90937090954 
0.80816628637 0.71487100155 0.63001982895 2.6824132222 2.7864913217 2.8992382033 3.0186096618 3.1415926536 3.0186096618 
2.8992382033 2.7864913217 2.6824132222 0.45917943135 0.35510133185 0.2423544503 0.12298299178 0 0.12298299178 
0.2423544503 0.35510133185 0.45917943135 0.22715816343 0.49462574053 0.3129712797 0.77059342779 0.68021497688 0.49462574053 
1.0172219679 1.0172219679 1.0172219679 1.0172219679 1.2156949949 1.271087727 1.3676273807 1.5707963268 2.1243706857 
1.3676273807 1.447813335 1.5707963268 1.7739652728 2.1243706857 2.6469669131 1.4827341049 1.5707963268 1.6937793186 
1.8705049266 2.1243706857 2.4613776767 2.8286213739 1.5707963268 1.6588585487 1.7739652728 1.9258976586 2.1243706857 
2.3709992258 2.6469669131 2.9144344902 0.26576171152 0.33975332011 0.45685295248 0.40226393329 0.51573716537 0.6552068806 
0.45538277901 0.56421707518 0.69407236469 0.84594095064 0.50083690068 0.60464862014 0.72561863695 0.86392567495 1.0172219679 
0.54002084522 0.63877777351 0.75168694275 0.87851444325 1.0172219679 1.1636342747 0.57404952988 0.66790778838 0.77356233629 
0.89058134991 1.0172219679 1.1502619915 1.2852923014 0.60381225391 0.69302191562 0.79216440667 0.90072551443 1.0172219679 
1.139116835 1.2630228569 1.3852070904 0.71487100155 0.80816628637 0.80816628637 0.90937090954 0.90937090954 0.90937090954 
1.0172219679 1.0172219679 1.0172219679 1.0172219679 1.1296873865 1.1296873865 1.1296873865 1.1296873865 1.1296873865 
1.24411054 1.24411054 1.24411054 1.24411054 1.24411054 1.24411054 1.3575464161 1.3575464161 1.3575464161 
1.3575464161 1.3575464161 1.3575464161 1.3575464161 1.4671972081 1.4671972081 1.4671972081 1.4671972081 1.4671972081 
1.4671972081 1.4671972081 1.4671972081 1.6743954455 1.6743954455 1.7840462375 1.6743954455 1.7840462375 1.8974821136 
1.6743954455 1.7840462375 1.8974821136 2.0119052671 1.6743954455 1.7840462375 1.8974821136 2.0119052671 2.1243706857 
1.6743954455 1.7840462375 1.8974821136 2.0119052671 2.1243706857 2.232221744 1.6743954455 1.7840462375 1.8974821136 
2.0119052671 2.1243706857 2.232221744 2.3334263672 1.6743954455 1.7840462375 1.8974821136 2.0119052671 2.1243706857 
2.232221744 2.3334263672 2.426721652 1.7563855631 1.8785697967 1.8563003522 2.0024758186 1.9913306621 1.9779583789 
2.1243706857 2.1243706857 2.1243706857 2.1243706857 2.2408671392 2.2510113037 2.2630782103 2.2776669786 2.295651703 
2.3494282469 2.3680303173 2.3899057108 2.4159740166 2.4475202889 2.486385773 2.448570738 2.4736848652 2.5028148801 
2.5369440334 2.5773755784 2.6258554882 2.6847397011 2.5377803997 2.5675431237 2.6015718084 2.6407557529 2.6862098746 
2.7393287203 2.8018393335 2.8758309421 2.718901062 2.8307207459 2.7598010554 2.95115522 2.8800620952 2.8058000847 
3.0774230472 3.00855263 2.9351694502 2.8576792927 3.0774230472 3.1415926536 3.0719036933 2.9967168029 2.91630358 
2.95115522 3.00855263 3.0719036933 3.1415926536 3.0653475414 2.9825888767 2.8307207459 2.8800620952 2.9351694502 
2.9967168029 3.0653475414 3.1415926536 3.0574329311 2.718901062 2.7598010554 2.8058000847 2.8576792927 2.91630358 
2.9825888767 3.0574329311 3.1415926536 2.718901062 2.7598010554 2.8307207459 2.8058000847 2.8800620952 2.95115522 
2.8576792927 2.9351694502 3.00855263 3.0774230472 2.91630358 2.9967168029 3.0719036933 3.1415926536 3.0774230472 
2.9825888767 3.0653475414 3.1415926536 3.0719036933 3.00855263 2.95115522 3.0574329311 3.1415926536 3.0653475414 