# vtk DataFile Version 5.1
vtk output
ASCII
DATASET POLYDATA
POINTS 1002 float
-10.7832 0.202198 -3.20233 11.1547 -1.1672 -2.92564 -10.3744 1.0923 3.79978 
10.5524 -1.09276 1.92879 -2.56781 2.43123 -1.76799 -1.72867 2.00572 1.70781 
-0.951221 -6.00877 -1.64397 -1.15812 -6.72693 2.18792 19.278 7.86033 0.690176 
-15.8151 7.56416 0.300941 17.5366 -0.889536 0.00604725 -15.6 -4.22462 -0.385756 
-9.51268 -0.115849 -3.24346 -8.07865 -0.497724 -3.26492 -6.45227 -0.909562 -3.10078 
-4.40983 -1.39015 -2.76533 -1.75487 -1.94704 -2.56431 1.29777 -2.35227 -2.654 
4.29989 -2.37576 -2.84023 6.97694 -2.09627 -2.95484 9.25496 -1.6829 -2.98288 
-10.4729 0.741272 -3.2813 -10.0791 1.28938 -3.41758 -9.58644 1.87501 -3.47278 
-8.84469 2.48951 -3.33651 -7.82981 3.04197 -3.15512 -6.84314 3.41698 -3.03678 
-6.0174 3.51929 -2.81233 -5.08212 3.32104 -2.42707 -3.87998 2.91151 -2.0486 
-10.2413 -0.545394 -3.17993 -9.56062 -1.34829 -3.11671 -8.75777 -2.1493 -2.93941 
-7.81114 -2.90944 -2.70123 -6.70493 -3.62324 -2.48242 -5.5275 -4.26741 -2.25692 
-4.3498 -4.80134 -2.02322 -3.16059 -5.24162 -1.84691 -2.00028 -5.64209 -1.73507 
-11.8183 0.834933 -3.24333 -12.8688 1.5283 -3.31155 -13.8926 2.3195 -3.27956 
-14.8031 3.22868 -3.03529 -15.5138 4.20053 -2.62642 -15.984 5.13964 -2.17586 
-16.2065 5.98065 -1.68686 -16.2266 6.69056 -1.07443 -16.0955 7.23215 -0.364269 
-11.6608 -0.0132218 -3.19378 -12.4881 -0.325236 -3.18685 -13.2669 -0.695339 -3.06314 
-14.0053 -1.11668 -2.79131 -14.6347 -1.59821 -2.46323 -15.1181 -2.12484 -2.13628 
-15.4852 -2.71044 -1.80142 -15.7017 -3.32542 -1.42673 -15.7216 -3.85237 -0.95676 
10.5802 -0.886637 -2.91165 9.7931 -0.615478 -2.84626 8.79683 -0.383007 -2.76249 
7.57229 -0.200741 -2.66951 6.10672 -0.0732994 -2.49487 4.35322 0.0131854 -2.23351 
2.31163 0.213646 -2.01436 0.265714 0.726785 -1.90288 -1.39706 1.53121 -1.84014 
10.4431 -1.82634 -2.96287 9.48283 -2.53162 -2.98421 8.29028 -3.22842 -2.95559 
6.93711 -3.82314 -2.81067 5.46861 -4.32374 -2.59908 3.96456 -4.8135 -2.42855 
2.55007 -5.24638 -2.26812 1.26442 -5.54518 -2.05472 0.0915161 -5.77131 -1.82972 
12.6368 -0.298128 -2.78772 14.2032 0.836871 -2.56433 15.7909 2.1809 -2.31323 
17.2327 3.58657 -2.08742 18.4387 4.94584 -1.81482 19.4136 6.23079 -1.41267 
20.0299 7.34453 -0.915467 20.1471 8.06203 -0.358042 19.8382 8.21463 0.21542 
12.4973 -0.936537 -2.81122 13.7928 -0.624171 -2.60489 15.0126 -0.318577 -2.365 
16.0803 -0.144863 -2.17067 16.9407 -0.148657 -2.01166 17.6146 -0.235836 -1.81185 
18.0529 -0.287532 -1.50538 18.1522 -0.334857 -1.05652 17.9367 -0.51683 -0.513253 
-9.04151 0.698042 3.84831 -7.52746 0.187043 3.83377 -5.83569 -0.449443 3.70176 
-3.89406 -1.16361 3.40019 -1.58772 -1.81284 3.04627 1.04549 -2.19792 2.77614 
3.756 -2.2375 2.498 6.30318 -2.02427 2.16059 8.58059 -1.64037 1.9329 
-9.91465 1.51761 3.70805 -9.36958 1.94142 3.57653 -8.69456 2.35784 3.46774 
-7.88924 2.66887 3.29504 -6.9949 2.80311 2.99729 -6.03515 2.80396 2.6701 
-5.00917 2.70386 2.38718 -3.92221 2.50142 2.14233 -2.80967 2.24693 1.92327 
-9.96268 0.365734 3.81079 -9.37911 -0.522463 3.67938 -8.59492 -1.52884 3.50977 
-7.57137 -2.56706 3.41317 -6.33336 -3.58837 3.37004 -5.03765 -4.56092 3.32379 
-3.87264 -5.39691 3.21473 -2.89464 -6.01304 2.95805 -2.01923 -6.42853 2.57546 
-11.3151 1.71464 3.63924 -12.1688 2.35038 3.35069 -12.9453 3.04651 3.02524 
-13.6958 3.86126 2.7644 -14.4031 4.72535 2.49108 -14.9979 5.51782 2.1149 
-15.4786 6.25077 1.7156 -15.8314 6.92072 1.32313 -15.9564 7.38668 0.852833 
-11.4644 0.984548 3.70724 -12.6364 0.751231 3.46571 -13.7989 0.339702 3.12327 
-14.8653 -0.294603 2.75381 -15.7572 -1.09802 2.32357 -16.3559 -1.90779 1.81925 
-16.5623 -2.63519 1.32397 -16.4157 -3.30457 0.807119 -16.0542 -3.87156 0.204411 
9.81337 -0.844762 1.94345 8.85241 -0.639815 1.9682 7.77768 -0.524639 1.92437 
6.60089 -0.427601 1.83864 5.20747 -0.249725 1.82823 3.65772 -0.00843495 1.85056 
2.15218 0.283249 1.80218 0.745108 0.715042 1.7481 -0.567655 1.32104 1.74213 
9.92423 -1.74559 1.8824 9.04219 -2.40686 1.8485 7.96405 -3.0777 1.8326 
6.77607 -3.79613 1.88231 5.48045 -4.49349 2.04381 4.07887 -5.05544 2.21826 
2.65241 -5.50877 2.26967 1.27399 -5.94209 2.23787 -0.0122461 -6.36168 2.21476 
12.0043 -0.217286 2.05719 13.4693 0.828193 2.2248 14.8838 1.98345 2.3789 
16.13 3.20779 2.46967 17.1646 4.38902 2.39532 18.034 5.3816 2.12508 
18.6931 6.24574 1.80737 19.0802 7.06385 1.51618 19.2536 7.66576 1.15457 
12.0512 -0.786503 2.05665 13.5287 -0.400129 2.23104 14.9435 -0.105351 2.28326 
16.1722 0.0408253 2.16862 17.115 0.132559 1.98117 17.8227 0.11815 1.75434 
18.2974 -0.0768014 1.45152 18.409 -0.315368 1.05079 18.1161 -0.542689 0.553351 
-2.37173 2.62581 -1.52875 -2.24014 2.68991 -1.228 -2.16371 2.75406 -0.903259 
-2.04904 2.94916 -0.549415 -1.90094 3.05866 -0.17067 -1.81505 2.86057 0.198769 
-1.78873 2.58078 0.605959 -1.76595 2.41984 1.06664 -1.74304 2.25901 1.46015 
-0.417333 1.53095 -1.63659 2.17953 1.17314 -1.60298 5.00128 1.51678 -1.57165 
7.76469 2.19378 -1.43749 10.2966 2.84174 -1.19282 12.6656 3.60319 -0.904503 
14.9459 4.67711 -0.580542 16.9277 5.9277 -0.18006 18.3643 7.06945 0.266773 
-4.21003 3.75088 -1.87022 -5.66195 5.13975 -1.95392 -7.07881 6.28675 -1.85535 
-8.53012 6.95831 -1.56027 -9.96824 7.17946 -1.21601 -11.3539 7.31472 -0.897197 
-12.659 7.58017 -0.597139 -13.8591 7.79008 -0.312624 -14.9326 7.77882 -0.0150539 
0.143319 1.44771 1.49669 2.32426 1.18369 1.22614 4.73691 1.32207 0.974889 
7.24675 1.85044 0.866909 9.68223 2.63108 0.890623 11.9467 3.47854 0.880988 
14.1083 4.4019 0.808073 16.1823 5.53831 0.777297 17.9645 6.79178 0.773519 
-3.44208 2.96225 1.73385 -5.11325 4.15067 1.73926 -6.73482 5.45225 1.83358 
-8.30206 6.62158 1.9818 -9.75348 7.43354 1.97117 -11.0878 7.90689 1.72318 
-12.4003 8.13457 1.37871 -13.6988 8.12276 1.04131 -14.8683 7.91155 0.691764 
-0.959953 -6.38404 -1.46536 -0.987456 -6.73153 -1.23422 -1.03008 -7.0316 -0.914437 
-1.10963 -7.36343 -0.463001 -1.21926 -7.67414 0.0958157 -1.30795 -7.7545 0.647566 
-1.34822 -7.59949 1.12295 -1.33751 -7.35989 1.54067 -1.27022 -7.07296 1.90175 
0.72934 -6.18842 -1.66633 2.59039 -6.31957 -1.70905 4.58215 -6.31497 -1.72935 
6.66025 -6.15649 -1.69694 8.71433 -6.01035 -1.67099 10.5724 -5.87327 -1.63298 
12.2588 -5.26208 -1.40601 14.0012 -3.909 -0.954045 15.841 -2.26571 -0.443292 
-2.55591 -6.05787 -1.5372 -4.20782 -6.09119 -1.39805 -5.90222 -6.07356 -1.23761 
-7.5953 -6.05714 -1.15094 -9.21602 -5.99823 -1.09757 -10.76 -5.73167 -0.951744 
-12.2072 -5.36355 -0.801876 -13.488 -5.08909 -0.729482 -14.6071 -4.77323 -0.612299 
0.51555 -6.79849 1.88102 2.41443 -6.85618 1.60791 4.41389 -6.78464 1.26515 
6.52513 -6.52537 0.85742 8.73038 -6.18689 0.579322 10.8183 -5.78119 0.469932 
12.6702 -5.00597 0.393637 14.3842 -3.7081 0.304633 16.03 -2.20761 0.18883 
-2.75827 -6.91294 2.3498 -4.35838 -7.13177 2.41083 -6.03846 -7.27839 2.31912 
-7.85413 -7.16623 2.1277 -9.67919 -6.80956 1.85621 -11.3475 -6.44599 1.48601 
-12.7677 -6.10382 1.05306 -13.9034 -5.60732 0.580871 -14.817 -4.94114 0.0839011 
20.2883 8.57862 0.825524 21.2185 8.72863 0.9237 22.174 8.11873 0.955868 
22.8757 6.93836 0.871108 22.9245 5.68672 0.723643 22.4325 4.52116 0.580759 
21.7266 3.22711 0.407765 20.7397 1.84253 0.23066 19.2958 0.498018 0.109745 
-16.7584 6.99879 0.22548 -17.5509 6.07149 0.0816318 -18.1125 4.76427 -0.146549 
-18.428 3.35394 -0.353541 -18.5565 2.03184 -0.479418 -18.5444 0.660292 -0.602634 
-18.275 -0.771861 -0.68694 -17.6098 -2.09796 -0.635914 -16.6424 -3.25809 -0.506801 
-9.11469 0.387396 -3.33505 -8.63683 0.916723 -3.42195 -7.59576 -0.02136 -3.29852 
-7.97854 1.45558 -3.36925 -6.98003 0.461639 -3.2546 -5.77961 -0.518865 -3.03339 
-7.03819 1.91807 -3.18946 -6.09647 0.837949 -3.08959 -4.86835 -0.207898 -2.90348 
-3.34849 -1.18299 -2.69488 -6.01916 2.23207 -3.02192 -5.00534 1.01568 -2.90367 
-3.68052 -0.0725943 -2.74427 -2.00781 -1.04828 -2.63606 -0.27233 -1.82162 -2.60582 
-5.12969 2.34084 -2.78668 -3.91232 1.05156 -2.70432 -2.35793 -0.0664946 -2.61285 
-0.499605 -0.92833 -2.58993 1.37555 -1.58778 -2.65593 2.97433 -2.04554 -2.75488 
-4.14387 2.18067 -2.40394 -2.7213 0.974228 -2.38013 -0.91141 -0.046079 -2.42275 
1.08593 -0.733224 -2.53295 3.02303 -1.18729 -2.67338 4.64589 -1.53171 -2.80544 
5.9308 -1.82012 -2.90197 -2.84521 1.84322 -2.0504 -1.27062 0.810643 -2.05736 
0.717251 0.0321449 -2.16739 2.76508 -0.414788 -2.39344 4.6249 -0.667808 -2.62386 
6.19124 -0.884844 -2.77786 7.44567 -1.12721 -2.88041 8.4573 -1.39911 -2.95179 
-11.5131 1.46681 -3.33982 -12.5464 2.27255 -3.35842 -11.1136 2.12099 -3.44625 
-13.49 3.16885 -3.18071 -12.0806 3.04889 -3.31973 -10.561 2.82585 -3.38244 
-14.282 4.14981 -2.80269 -12.8564 4.02237 -2.98107 -11.3666 3.83377 -3.10174 
-9.66464 3.53298 -3.15329 -14.8804 5.17462 -2.36779 -13.4606 5.0341 -2.55486 
-11.9187 4.79917 -2.72258 -10.2856 4.52247 -2.86652 -8.50706 4.10595 -3.01328 
-15.1958 6.11401 -1.91575 -13.8874 6.03791 -2.10404 -12.3396 5.75707 -2.30663 
-10.7265 5.42006 -2.53176 -9.05251 5.03663 -2.78647 -7.44994 4.44952 -2.93802 
-15.2324 6.84595 -1.36322 -14.0361 6.83512 -1.5681 -12.6198 6.60916 -1.78099 
-11.0848 6.28101 -2.05751 -9.4947 5.91364 -2.3893 -7.92442 5.37595 -2.66348 
-6.50725 4.5188 -2.67588 -15.1266 7.3878 -0.693846 -13.9833 7.37392 -0.946875 
-12.6963 7.17775 -1.17783 -11.2962 6.92531 -1.45968 -9.81721 6.68979 -1.80253 
-8.28867 6.26274 -2.1537 -6.8234 5.45452 -2.34097 -5.43103 4.27539 -2.25934 
-13.8862 8.1171 0.384268 -12.6402 8.30101 0.720758 -12.7318 8.02637 0.0374519 
-11.2754 8.26366 1.06078 -11.4148 8.15891 0.33371 -11.4346 7.72073 -0.329437 
-9.90485 7.99108 1.4469 -9.97989 8.20067 0.727422 -10.0156 7.94029 -0.0426219 
-10.0121 7.52706 -0.678713 -8.5105 7.35271 1.68328 -8.57145 7.93402 1.15677 
-8.54909 8.08773 0.374029 -8.53542 7.80229 -0.42178 -8.55065 7.40536 -1.0292 
-6.97049 6.16618 1.61052 -7.12598 6.90496 1.27688 -7.15204 7.49122 0.684245 
-7.1187 7.58843 -0.132725 -7.10084 7.26533 -0.856252 -7.09426 6.82108 -1.38079 
-5.28364 4.66099 1.44713 -5.46822 5.20713 1.09827 -5.60063 5.85152 0.665632 
[...]
POINT_DATA 1002
FIELD FieldData 4
_paraPhi 1 1002 double
6.2831853072 3.1415926536 6.2831853072 3.1415926536 4.7123889804 4.7123889804 1.5707963268 1.5707963268 3.6951670125 
5.7296109483 2.5880182947 0.5535743589 6.2831853072 6.2831853072 6.2831853072 6.2831853072 3.1415926536 3.1415926536 
3.1415926536 3.1415926536 3.1415926536 6.1053039672 5.898798347 5.6768734901 5.4599499503 5.2659633393 5.1032165617 
4.9713148346 4.8656852733 4.7809517865 0.17788134 0.38438696014 0.60631181711 0.82323535693 1.0172219679 1.1799687454 
1.3118704726 1.4175000338 1.5022335207 6.1892828907 6.1070320098 6.035312792 5.9728339911 5.9183214791 5.8706119594 
5.8286879411 5.7916808611 5.7588591896 0.093902416448 0.17615329733 0.2478725152 0.31035131605 0.36486382811 0.41257334776 
0.45449736604 0.4915044461 0.52432611754 3.3194739936 3.5259796137 3.7479044707 3.9648280105 4.1588146215 4.321561399 
4.4534631262 4.5590926874 4.6438261743 2.9637113136 2.7572056934 2.5352808365 2.3183572967 2.1243706857 1.9616239082 
1.829722181 1.7240926197 1.6393591329 3.23549507 3.3177459509 3.3894651688 3.4519439696 3.5064564817 3.5541660013 
3.5960900196 3.6330970997 3.6659187711 3.0476902371 2.9654393563 2.8937201384 2.8312413375 2.7767288255 2.7290193058 
2.6870952876 2.6500882075 2.617266536 6.2831853072 6.2831853072 6.2831853072 6.2831853072 3.1415926536 3.1415926536 
3.1415926536 3.1415926536 3.1415926536 6.1053039672 5.898798347 5.6768734901 5.4599499503 5.2659633393 5.1032165617 
4.9713148346 4.8656852733 4.7809517865 0.17788134 0.38438696014 0.60631181711 0.82323535693 1.0172219679 1.1799687454 
1.3118704726 1.4175000338 1.5022335207 6.1892828907 6.1070320098 6.035312792 5.9728339911 5.9183214791 5.8706119594 
5.8286879411 5.7916808611 5.7588591896 0.093902416448 0.17615329733 0.2478725152 0.31035131605 0.36486382811 0.41257334776 
0.45449736604 0.4915044461 0.52432611754 3.3194739936 3.5259796137 3.7479044707 3.9648280105 4.1588146215 4.321561399 
4.4534631262 4.5590926874 4.6438261743 2.9637113136 2.7572056934 2.5352808365 2.3183572967 2.1243706857 1.9616239082 
1.829722181 1.7240926197 1.6393591329 3.23549507 3.3177459509 3.3894651688 3.4519439696 3.5064564817 3.5541660013 
3.5960900196 3.6330970997 3.6659187711 3.0476902371 2.9654393563 2.8937201384 2.8312413375 2.7767288255 2.7290193058 
2.6870952876 2.6500882075 2.617266536 4.7123889804 4.7123889804 4.7123889804 4.7123889804 4.7123889804 4.7123889804 
4.7123889804 4.7123889804 4.7123889804 4.6087898617 4.4991390697 4.3857031936 4.2712800401 4.1588146215 4.0509635631 
3.94975894 3.8564636551 3.7716124825 4.8159880991 4.9256388911 5.0390747672 5.1534979207 5.2659633393 5.3738143976 
5.4750190208 5.5683143056 5.6531654782 4.6087898617 4.4991390697 4.3857031936 4.2712800401 4.1588146215 4.0509635631 
3.94975894 3.8564636551 3.7716124825 4.8159880991 4.9256388911 5.0390747672 5.1534979207 5.2659633393 5.3738143976 
5.4750190208 5.5683143056 5.6531654782 1.5707963268 1.5707963268 1.5707963268 1.5707963268 1.5707963268 1.5707963268 
1.5707963268 1.5707963268 1.5707963268 1.6743954455 1.7840462375 1.8974821136 2.0119052671 2.1243706857 2.232221744 
2.3334263672 2.426721652 2.5115728246 1.4671972081 1.3575464161 1.24411054 1.1296873865 1.0172219679 0.90937090954 
0.80816628637 0.71487100155 0.63001982895 1.6743954455 1.7840462375 1.8974821136 2.0119052671 2.1243706857 2.232221744 
2.3334263672 2.426721652 2.5115728246 1.4671972081 1.3575464161 1.24411054 1.1296873865 1.0172219679 0.90937090954 
0.80816628637 0.71487100155 0.63001982895 3.6007720849 3.4966939854 3.3839471039 3.2645756454 3.1415926536 3.0186096618 
2.8992382033 2.7864913217 2.6824132222 5.8240058758 5.9280839753 6.0408308569 6.1602023154 6.2831853072 0.12298299178 
0.2423544503 0.35510133185 0.45917943135 6.0560271438 5.7885595667 5.9702140275 5.5125918794 5.6029703303 5.7885595667 
5.2659633393 5.2659633393 5.2659633393 5.2659633393 5.0674903122 5.0120975802 4.9155579264 4.7123889804 4.1588146215 
4.9155579264 4.8353719722 4.7123889804 4.5092200343 4.1588146215 3.6362183941 4.8004512023 4.7123889804 4.5894059886 
4.4126803806 4.1588146215 3.8218076305 3.4545639333 4.7123889804 4.6243267584 4.5092200343 4.3572876485 4.1588146215 
3.9121860814 3.6362183941 3.368750817 6.0174235957 5.9434319871 5.8263323547 5.8809213739 5.7674481418 5.6279784266 
5.8278025282 5.718968232 5.5891129425 5.4372443565 5.7823484065 5.678536687 5.5575666702 5.4192596322 5.2659633393 
5.743164462 5.6444075337 5.5314983644 5.4046708639 5.2659633393 5.1195510325 5.7091357773 5.6152775188 5.5096229709 
5.3926039573 5.2659633393 5.1329233157 4.9978930058 5.6793730533 5.5901633916 5.4910209005 5.3824597928 5.2659633393 
5.1440684722 5.0201624502 4.8979782167 5.5683143056 5.4750190208 5.4750190208 5.3738143976 5.3738143976 5.3738143976 
5.2659633393 5.2659633393 5.2659633393 5.2659633393 5.1534979207 5.1534979207 5.1534979207 5.1534979207 5.1534979207 
5.0390747672 5.0390747672 5.0390747672 5.0390747672 5.0390747672 5.0390747672 4.9256388911 4.9256388911 4.9256388911 
4.9256388911 4.9256388911 4.9256388911 4.9256388911 4.8159880991 4.8159880991 4.8159880991 4.8159880991 4.8159880991 
4.8159880991 4.8159880991 4.8159880991 4.6087898617 4.6087898617 4.4991390697 4.6087898617 4.4991390697 4.3857031936 
4.6087898617 4.4991390697 4.3857031936 4.2712800401 4.6087898617 4.4991390697 4.3857031936 4.2712800401 4.1588146215 
4.6087898617 4.4991390697 4.3857031936 4.2712800401 4.1588146215 4.0509635631 4.6087898617 4.4991390697 4.3857031936 
4.2712800401 4.1588146215 4.0509635631 3.94975894 4.6087898617 4.4991390697 4.3857031936 4.2712800401 4.1588146215 
4.0509635631 3.94975894 3.8564636551 4.526799744 4.4046155105 4.426884955 4.2807094886 4.2918546451 4.3052269283 
4.1588146215 4.1588146215 4.1588146215 4.1588146215 4.042318168 4.0321740035 4.0201070968 4.0055183285 3.9875336042 
3.9337570603 3.9151549899 3.8932795963 3.8672112905 3.8356650183 3.7967995342 3.8346145692 3.809500442 3.7803704271 
3.7462412737 3.7058097288 3.657329819 3.5984456061 3.7454049075 3.7156421835 3.6816134988 3.6424295543 3.5969754326 
3.5438565869 3.4813459737 3.4073543651 3.5642842451 3.4524645613 3.5233842518 3.3320300872 3.403123212 3.4773852225 
3.20576226 3.2746326772 3.348015857 3.4255060145 3.0774230472 3.1415926536 3.2112816139 3.2864685043 3.3668817272 
2.95115522 3.00855263 3.0719036933 3.1415926536 3.2178377658 3.3005964304 2.8307207459 2.8800620952 2.9351694502 
2.9967168029 3.0653475414 3.1415926536 3.225752376 2.718901062 2.7598010554 2.8058000847 2.8576792927 2.91630358 
2.9825888767 3.0574329311 3.1415926536 3.5642842451 3.5233842518 3.4524645613 3.4773852225 3.403123212 3.3320300872 
3.4255060145 3.348015857 3.2746326772 3.20576226 3.3668817272 3.2864685043 3.2112816139 3.1415926536 3.0774230472 
3.3005964304 3.2178377658 3.1415926536 3.0719036933 3.00855263 2.95115522 3.225752376 3.1415926536 3.0653475414 
2.9967168029 2.9351694502 2.8800620952 2.8307207459 3.1415926536 3.0574329311 2.9825888767 2.91630358 2.8576792927 
2.8058000847 2.7598010554 2.718901062 4.526799744 4.426884955 4.4046155105 4.3052269283 4.2918546451 4.2807094886 
4.1588146215 4.1588146215 4.1588146215 4.1588146215 3.9875336042 4.0055183285 4.0201070968 4.0321740035 4.042318168 
3.7967995342 3.8356650183 3.8672112905 3.8932795963 3.9151549899 3.9337570603 3.5984456061 3.657329819 3.7058097288 
3.7462412737 3.7803704271 3.809500442 3.8346145692 3.4073543651 3.4813459737 3.5438565869 3.5969754326 3.6424295543 
3.6816134988 3.7156421835 3.7454049075 4.7123889804 4.8004512023 4.6243267584 4.9155579264 4.7123889804 4.5092200343 
5.0674903122 4.8353719722 4.5894059886 4.3572876485 5.2659633393 5.0120975802 4.7123889804 4.4126803806 4.1588146215 
5.5125918794 5.2659633393 4.9155579264 4.5092200343 4.1588146215 3.9121860814 5.7885595667 5.6029703303 5.2659633393 
4.7123889804 4.1588146215 3.8218076305 3.6362183941 6.0560271438 5.9702140275 5.7885595667 5.2659633393 4.1588146215 
3.6362183941 3.4545639333 3.368750817 0.22715816343 0.49462574053 0.3129712797 0.77059342779 0.68021497688 0.49462574053 
1.0172219679 1.0172219679 1.0172219679 1.0172219679 1.2156949949 1.271087727 1.3676273807 1.5707963268 2.1243706857 
1.3676273807 1.447813335 1.5707963268 1.7739652728 2.1243706857 2.6469669131 1.4827341049 1.5707963268 1.6937793186 
1.8705049266 2.1243706857 2.4613776767 2.8286213739 1.5707963268 1.6588585487 1.7739652728 1.9258976586 2.1243706857 
2.3709992258 2.6469669131 2.9144344902 1.7563855631 1.8785697967 1.8563003522 2.0024758186 1.9913306621 1.9779583789 
2.1243706857 2.1243706857 2.1243706857 2.1243706857 2.2408671392 2.2510113037 2.2630782103 2.2776669786 2.295651703 
2.3494282469 2.3680303173 2.3899057108 2.4159740166 2.4475202889 2.486385773 2.448570738 2.4736848652 2.5028148801 
2.5369440334 2.5773755784 2.6258554882 2.6847397011 2.5377803997 2.5675431237 2.6015718084 2.6407557529 2.6862098746 
2.7393287203 2.8018393335 2.8758309421 1.6743954455 1.6743954455 1.7840462375 1.6743954455 1.7840462375 1.8974821136 
1.6743954455 1.7840462375 1.8974821136 2.0119052671 1.6743954455 1.7840462375 1.8974821136 2.0119052671 2.1243706857 
1.6743954455 1.7840462375 1.8974821136 2.0119052671 2.1243706857 2.232221744 1.6743954455 1.7840462375 1.8974821136 
2.0119052671 2.1243706857 2.232221744 2.3334263672 1.6743954455 1.7840462375 1.8974821136 2.0119052671 2.1243706857 
2.232221744 2.3334263672 2.426721652 1.4671972081 1.3575464161 1.4671972081 1.24411054 1.3575464161 1.4671972081 
1.1296873865 1.24411054 1.3575464161 1.4671972081 1.0172219679 1.1296873865 1.24411054 1.3575464161 1.4671972081 
0.90937090954 1.0172219679 1.1296873865 1.24411054 1.3575464161 1.4671972081 0.80816628637 0.90937090954 1.0172219679 
1.1296873865 1.24411054 1.3575464161 1.4671972081 0.71487100155 0.80816628637 0.90937090954 1.0172219679 1.1296873865 
1.24411054 1.3575464161 1.4671972081 0.60381225391 0.57404952988 0.69302191562 0.54002084522 0.66790778838 0.79216440667 
0.50083690068 0.63877777351 0.77356233629 0.90072551443 0.45538277901 0.60464862014 0.75168694275 0.89058134991 1.0172219679 
0.40226393329 0.56421707518 0.72561863695 0.87851444325 1.0172219679 1.139116835 0.33975332011 0.51573716537 0.69407236469 
0.86392567495 1.0172219679 1.1502619915 1.2630228569 0.26576171152 0.45685295248 0.6552068806 0.84594095064 1.0172219679 
1.1636342747 1.2852923014 1.3852070904 0.22715816343 0.3129712797 0.49462574053 0.49462574053 0.68021497688 0.77059342779 
1.0172219679 1.0172219679 1.0172219679 1.0172219679 2.1243706857 1.5707963268 1.3676273807 1.271087727 1.2156949949 
2.6469669131 2.1243706857 1.7739652728 1.5707963268 1.447813335 1.3676273807 2.8286213739 2.4613776767 2.1243706857 
1.8705049266 1.6937793186 1.5707963268 1.4827341049 2.9144344902 2.6469669131 2.3709992258 2.1243706857 1.9258976586 
1.7739652728 1.6588585487 1.5707963268 1.7563855631 1.8563003522 1.8785697967 1.9779583789 1.9913306621 2.0024758186 
2.1243706857 2.1243706857 2.1243706857 2.1243706857 2.295651703 2.2776669786 2.2630782103 2.2510113037 2.2408671392 
2.486385773 2.4475202889 2.4159740166 2.3899057108 2.3680303173 2.3494282469 2.6847397011 2.6258554882 2.5773755784 
2.5369440334 2.5028148801 2.4736848652 2.448570738 2.8758309421 2.8018393335 2.7393287203 2.6862098746 2.6407557529 
2.6015718084 2.5675431237 2.5377803997 5.8604937156 5.901393709 5.9723133995 5.9473927383 6.0216547488 6.0927478736 
5.9992719463 6.0767621038 6.1501452836 6.2190157008 6.0578962336 6.1383094565 6.2134963469 0 0.064169606361 
6.1241815303 6.206940195 6.2831853072 0.069688960264 0.13304002361 0.19043743361 6.1990255847 0 0.07624511221 
0.14487585072 0.20642320337 0.26153055843 0.3108719077 0 0.084159722458 0.15900377685 0.22528907359 0.28391336087 
0.3357925689 0.38179159818 0.42269159155 5.8604937156 5.9723133995 5.901393709 6.0927478736 6.0216547488 5.9473927383 
6.2190157008 6.1501452836 6.0767621038 5.9992719463 0.064169606361 0 6.2134963469 6.1383094565 6.0578962336 
0.19043743361 0.13304002361 0.069688960264 6.2831853072 6.206940195 6.1241815303 0.3108719077 0.26153055843 0.20642320337 
0.14487585072 0.07624511221 6.2831853072 6.1990255847 0.42269159155 0.38179159818 0.3357925689 0.28391336087 0.22528907359 
0.15900377685 0.084159722458 0 5.6793730533 5.7091357773 5.5901633916 5.743164462 5.6152775188 5.4910209005 
5.7823484065 5.6444075337 5.5096229709 5.3824597928 5.8278025282 5.678536687 5.5314983644 5.3926039573 5.2659633393 
5.8809213739 5.718968232 5.5575666702 5.4046708639 5.2659633393 5.1440684722 5.9434319871 5.7674481418 5.5891129425 
5.4192596322 5.2659633393 5.1329233157 5.0201624502 6.0174235957 5.8263323547 5.6279784266 5.4372443565 5.2659633393 
5.1195510325 4.9978930058 4.8979782167 1.3852070904 1.2852923014 1.2630228569 1.1636342747 1.1502619915 1.139116835 
1.0172219679 1.0172219679 1.0172219679 1.0172219679 0.84594095064 0.86392567495 0.87851444325 0.89058134991 0.90072551443 
0.6552068806 0.69407236469 0.72561863695 0.75168694275 0.77356233629 0.79216440667 0.45685295248 0.51573716537 0.56421707518 
0.60464862014 0.63877777351 0.66790778838 0.69302191562 0.26576171152 0.33975332011 0.40226393329 0.45538277901 0.50083690068 
0.54002084522 0.57404952988 0.60381225391 
_paraPhiHalf 1 1002 double
0 3.1415926536 0 3.1415926536 1.5707963268 1.5707963268 1.5707963268 1.5707963268 2.5880182947 
0.5535743589 2.5880182947 0.5535743589 0 0 0 0 3.1415926536 3.1415926536 
3.1415926536 3.1415926536 3.1415926536 0.17788134 0.38438696014 0.60631181711 0.82323535693 1.0172219679 1.1799687454 
1.3118704726 1.4175000338 1.5022335207 0.17788134 0.38438696014 0.60631181711 0.82323535693 1.0172219679 1.1799687454 
1.3118704726 1.4175000338 1.5022335207 0.093902416448 0.17615329733 0.2478725152 0.31035131605 0.36486382811 0.41257334776 
0.45449736604 0.4915044461 0.52432611754 0.093902416448 0.17615329733 0.2478725152 0.31035131605 0.36486382811 0.41257334776 
0.45449736604 0.4915044461 0.52432611754 2.9637113136 2.7572056934 2.5352808365 2.3183572967 2.1243706857 1.9616239082 
1.829722181 1.7240926197 1.6393591329 2.9637113136 2.7572056934 2.5352808365 2.3183572967 2.1243706857 1.9616239082 
1.829722181 1.7240926197 1.6393591329 3.0476902371 2.9654393563 2.8937201384 2.8312413375 2.7767288255 2.7290193058 
2.6870952876 2.6500882075 2.617266536 3.0476902371 2.9654393563 2.8937201384 2.8312413375 2.7767288255 2.7290193058 
2.6870952876 2.6500882075 2.617266536 0 0 0 0 3.1415926536 3.1415926536 
3.1415926536 3.1415926536 3.1415926536 0.17788134 0.38438696014 0.60631181711 0.82323535693 1.0172219679 1.1799687454 
1.3118704726 1.4175000338 1.5022335207 0.17788134 0.38438696014 0.60631181711 0.82323535693 1.0172219679 1.1799687454 
1.3118704726 1.4175000338 1.5022335207 0.093902416448 0.17615329733 0.2478725152 0.31035131605 0.36486382811 0.41257334776 
0.45449736604 0.4915044461 0.52432611754 0.093902416448 0.17615329733 0.2478725152 0.31035131605 0.36486382811 0.41257334776 
0.45449736604 0.4915044461 0.52432611754 2.9637113136 2.7572056934 2.5352808365 2.3183572967 2.1243706857 1.9616239082 
1.829722181 1.7240926197 1.6393591329 2.9637113136 2.7572056934 2.5352808365 2.3183572967 2.1243706857 1.9616239082 
1.829722181 1.7240926197 1.6393591329 3.0476902371 2.9654393563 2.8937201384 2.8312413375 2.7767288255 2.7290193058 
2.6870952876 2.6500882075 2.617266536 3.0476902371 2.9654393563 2.8937201384 2.8312413375 2.7767288255 2.7290193058 
2.6870952876 2.6500882075 2.617266536 1.5707963268 1.5707963268 1.5707963268 1.5707963268 1.5707963268 1.5707963268 
1.5707963268 1.5707963268 1.5707963268 1.6743954455 1.7840462375 1.8974821136 2.0119052671 2.1243706857 2.232221744 
2.3334263672 2.426721652 2.5115728246 1.4671972081 1.3575464161 1.24411054 1.1296873865 1.0172219679 0.90937090954 
0.80816628637 0.71487100155 0.63001982895 1.6743954455 1.7840462375 1.8974821136 2.0119052671 2.1243706857 2.232221744 
2.3334263672 2.426721652 2.5115728246 1.4671972081 1.3575464161 1.24411054 1.1296873865 1.0172219679 0.90937090954 
0.80816628637 0.71487100155 0.63001982895 1.5707963268 1.5707963268 1.5707963268 1.5707963268 1.5707963268 1.5707963268 
1.5707963268 1.5707963268 1.5707963268 1.6743954455 1.7840462375 1.8974821136 2.0119052671 2.1243706857 2.232221744 
2.3334263672 2.426721652 2.5115728246 1.4671972081 1.3575464161 1.24411054 1.1296873865 1.0172219679 0.90937090954 
0.80816628637 0.71487100155 0.63001982895 1.6743954455 1.7840462375 1.8974821136 2.0119052671 2.1243706857 2.232221744 
2.3334263672 2.426721652 2.5115728246 1.4671972081 1.3575464161 1.24411054 1.1296873865 1.0172219679 0.90937090954 
0.80816628637 0.71487100155 0.63001982895 2.6824132222 2.7864913217 2.8992382033 3.0186096618 3.1415926536 3.0186096618 
2.8992382033 2.7864913217 2.6824132222 0.45917943135 0.35510133185 0.2423544503 0.12298299178 0 0.12298299178 
0.2423544503 0.35510133185 0.45917943135 0.22715816343 0.49462574053 0.3129712797 0.77059342779 0.68021497688 0.49462574053 
1.0172219679 1.0172219679 1.0172219679 1.0172219679 1.2156949949 1.271087727 1.3676273807 1.5707963268 2.1243706857 
1.3676273807 1.447813335 1.5707963268 1.7739652728 2.1243706857 2.6469669131 1.4827341049 1.5707963268 1.6937793186 
1.8705049266 2.1243706857 2.4613776767 2.8286213739 1.5707963268 1.6588585487 1.7739652728 1.9258976586 2.1243706857 
2.3709992258 2.6469669131 2.9144344902 0.26576171152 0.33975332011 0.45685295248 0.40226393329 0.51573716537 0.6552068806 
0.45538277901 0.56421707518 0.69407236469 0.84594095064 0.50083690068 0.60464862014 0.72561863695 0.86392567495 1.0172219679 
0.54002084522 0.63877777351 0.75168694275 0.87851444325 1.0172219679 1.1636342747 0.57404952988 0.66790778838 0.77356233629 
0.89058134991 1.0172219679 1.1502619915 1.2852923014 0.60381225391 0.69302191562 0.79216440667 0.90072551443 1.0172219679 
1.139116835 1.2630228569 1.3852070904 0.71487100155 0.80816628637 0.80816628637 0.90937090954 0.90937090954 0.90937090954 
1.0172219679 1.0172219679 1.0172219679 1.0172219679 1.1296873865 1.1296873865 1.1296873865 1.1296873865 1.1296873865 
1.24411054 1.24411054 1.24411054 1.24411054 1.24411054 1.24411054 1.3575464161 1.3575464161 1.3575464161 
1.3575464161 1.3575464161 1.3575464161 1.3575464161 1.4671972081 1.4671972081 1.4671972081 1.4671972081 1.4671972081 
1.4671972081 1.4671972081 1.4671972081 1.6743954455 1.6743954455 1.7840462375 1.6743954455 1.7840462375 1.8974821136 
1.6743954455 1.7840462375 1.8974821136 2.0119052671 1.6743954455 1.7840462375 1.8974821136 2.0119052671 2.1243706857 
1.6743954455 1.7840462375 1.8974821136 2.0119052671 2.1243706857 2.232221744 1.6743954455 1.7840462375 1.8974821136 
2.0119052671 2.1243706857 2.232221744 2.3334263672 1.6743954455 1.7840462375 1.8974821136 2.0119052671 2.1243706857 
2.232221744 2.3334263672 2.426721652 1.7563855631 1.8785697967 1.8563003522 2.0024758186 1.9913306621 1.9779583789 
2.1243706857 2.1243706857 2.1243706857 2.1243706857 2.2408671392 2.2510113037 2.2630782103 2.2776669786 2.295651703 
2.3494282469 2.3680303173 2.3899057108 2.4159740166 2.4475202889 2.486385773 2.448570738 2.4736848652 2.5028148801 
2.5369440334 2.5773755784 2.6258554882 2.6847397011 2.5377803997 2.5675431237 2.6015718084 2.6407557529 2.6862098746 
2.7393287203 2.8018393335 2.8758309421 2.718901062 2.8307207459 2.7598010554 2.95115522 2.8800620952 2.8058000847 
3.0774230472 3.00855263 2.9351694502 2.8576792927 3.0774230472 3.1415926536 3.0719036933 2.9967168029 2.91630358 
2.95115522 3.00855263 3.0719036933 3.1415926536 3.0653475414 2.9825888767 2.8307207459 2.8800620952 2.9351694502 
2.9967168029 3.0653475414 3.1415926536 3.0574329311 2.718901062 2.7598010554 2.8058000847 2.8576792927 2.91630358 
2.9825888767 3.0574329311 3.1415926536 2.718901062 2.7598010554 2.8307207459 2.8058000847 2.8800620952 2.95115522 
2.8576792927 2.9351694502 3.00855263 3.0774230472 2.91630358 2.9967168029 3.0719036933 3.1415926536 3.0774230472 
2.9825888767 3.0653475414 3.1415926536 3.0719036933 3.00855263 2.95115522 3.0574329311 3.1415926536 3.0653475414 