# vtk DataFile Version 5.1
vtk output
ASCII
DATASET POLYDATA
POINTS 1002 float
-10.4921 -0.00604129 -3.23241 10.6858 -1.19294 -2.89083 -10.2691 0.910338 3.6967 
10.6088 -0.854073 2.00803 -2.30056 2.53687 -2.2581 -1.43732 1.82834 0.974689 
-0.955899 -5.60956 -1.99397 -1.49961 -6.66747 1.87793 18.6147 6.59397 0.857064 
-15.5118 7.36361 0.802217 17.0077 -1.82954 0.486512 -15.3484 -4.32264 -0.0490589 
-9.26867 -0.200229 -3.27658 -7.92149 -0.478085 -3.3816 -6.37991 -0.851598 -3.44142 
-4.41533 -1.23141 -3.33857 -1.88448 -1.6014 -3.23461 1.00355 -1.94744 -3.28161 
3.84511 -2.05075 -3.31593 6.3916 -1.83713 -3.22971 8.64602 -1.5157 -3.08426 
-10.2076 0.53735 -3.30773 -9.85637 1.12533 -3.4173 -9.41515 1.72775 -3.5458 
-8.82896 2.27833 -3.61756 -8.00459 2.77432 -3.54441 -6.92161 3.23658 -3.32034 
-5.74695 3.51888 -3.03673 -4.62939 3.44185 -2.76402 -3.51134 3.04685 -2.5033 
-9.98155 -0.652872 -3.16001 -9.34129 -1.35044 -3.06004 -8.53926 -2.10059 -2.97104 
-7.57615 -2.84475 -2.88959 -6.48153 -3.51661 -2.75571 -5.31227 -4.09498 -2.57188 
-4.1364 -4.57591 -2.39831 -3.0024 -4.97022 -2.24561 -1.93783 -5.31021 -2.10688 
-11.5301 0.565788 -3.22482 -12.632 1.31176 -3.11312 -13.7047 2.19799 -2.84716 
-14.6345 3.13895 -2.47826 -15.3709 4.10313 -2.09489 -15.8617 5.05157 -1.6607 
-16.0625 5.88503 -1.08532 -16.0336 6.55045 -0.412251 -15.846 7.04709 0.237792 
-11.3766 -0.247665 -3.17967 -12.2369 -0.533684 -3.06224 -13.0421 -0.854293 -2.82082 
-13.7815 -1.24823 -2.5103 -14.3963 -1.75512 -2.20514 -14.8776 -2.31002 -1.90692 
-15.236 -2.83573 -1.57421 -15.4223 -3.3616 -1.15035 -15.4379 -3.88874 -0.621785 
10.0749 -0.87249 -2.89912 9.24105 -0.542071 -2.92459 8.28028 -0.226539 -3.00887 
7.2434 0.0673552 -3.09231 5.90269 0.334464 -3.05503 4.04114 0.567257 -2.89181 
1.98731 0.804923 -2.71264 0.24576 1.16621 -2.56516 -1.12381 1.75483 -2.41748 
9.92015 -1.69147 -2.9602 9.01783 -2.1897 -2.96092 7.89659 -2.78091 -2.98218 
6.53666 -3.42073 -3.02456 5.10453 -3.92731 -2.96968 3.73597 -4.31123 -2.7986 
2.39467 -4.71396 -2.62121 1.10315 -5.10022 -2.46412 -0.0220661 -5.38848 -2.26076 
12.4367 -0.524401 -2.58971 14.3288 0.463309 -2.17608 16.0898 1.66973 -1.8522 
17.4635 2.93413 -1.67261 18.4395 4.26335 -1.39431 19.1418 5.50268 -0.910902 
19.5763 6.27946 -0.382142 19.6285 6.58274 0.0996664 19.2633 6.66515 0.521278 
12.1797 -1.14991 -2.70585 13.5721 -1.02299 -2.42722 14.8192 -0.805579 -2.08212 
15.9108 -0.644481 -1.76399 16.7583 -0.674557 -1.51675 17.2927 -0.811144 -1.29246 
17.5171 -0.967086 -0.972491 17.4724 -1.20562 -0.485126 17.2691 -1.52698 0.0586776 
-9.07722 0.562836 3.6198 -7.70093 0.149486 3.48614 -6.08267 -0.378998 3.30995 
-4.13586 -1.02078 3.00363 -1.82315 -1.60176 2.62874 0.777876 -1.95789 2.32673 
3.50242 -2.0467 2.03567 6.16152 -1.85082 1.78423 8.56995 -1.41745 1.77173 
-9.82188 1.35867 3.53939 -9.25812 1.82423 3.37309 -8.53491 2.23572 3.1996 
-7.70096 2.51448 2.95245 -6.7842 2.62968 2.62498 -5.75343 2.62386 2.28672 
-4.64934 2.53004 1.95196 -3.55308 2.32706 1.60398 -2.48343 2.05652 1.26772 
-9.9675 0.273573 3.80763 -9.55237 -0.438155 3.81826 -8.91728 -1.32573 3.64392 
-8.03261 -2.36336 3.36972 -6.963 -3.36245 3.15309 -5.70397 -4.26271 3.00247 
-4.3489 -5.12852 2.83931 -3.18101 -5.87612 2.60859 -2.28919 -6.3811 2.27803 
-11.1253 1.52782 3.60106 -11.9646 2.20098 3.43032 -12.7516 2.91317 3.21168 
-13.4973 3.68636 2.97804 -14.1971 4.48727 2.72453 -14.7856 5.25286 2.45515 
-15.2237 6.01747 2.16314 -15.5108 6.73674 1.79109 -15.6153 7.21319 1.3192 
-11.2675 0.792955 3.72043 -12.3749 0.518351 3.59166 -13.5069 0.0244109 3.38372 
-14.486 -0.648467 3.09836 -15.1929 -1.4174 2.62915 -15.6875 -2.215 2.07319 
-16.0219 -2.96566 1.59411 -16.0851 -3.60166 1.10512 -15.8172 -4.06473 0.524533 
9.81072 -0.695036 1.92724 8.84278 -0.526588 1.87093 7.79365 -0.400509 1.7202 
6.6139 -0.313365 1.49781 5.15872 -0.170762 1.38816 3.56162 0.0930439 1.39199 
2.13108 0.442211 1.34071 0.895349 0.836721 1.22052 -0.290129 1.29492 1.10185 
10.0448 -1.37842 1.96945 9.17556 -1.9853 1.93061 7.95663 -2.737 1.77799 
6.48214 -3.50974 1.59627 4.9285 -4.15198 1.59052 3.4397 -4.71574 1.72974 
2.05396 -5.26767 1.86059 0.744339 -5.78699 1.94306 -0.464346 -6.26377 1.95637 
12.0357 -0.0562292 2.28869 13.5065 0.967146 2.59259 14.9441 2.11219 2.80508 
16.1188 3.20719 2.87006 16.9975 4.21076 2.79758 17.7453 5.14715 2.6123 
18.2785 5.94061 2.30015 18.5098 6.4862 1.84855 18.6029 6.70956 1.33218 
12.1685 -0.533865 2.31523 13.6747 -0.162586 2.61552 15.0951 0.171641 2.73458 
16.3643 0.372628 2.65929 17.3803 0.411007 2.51608 18.0825 0.287894 2.29231 
18.4006 -0.0227031 1.92486 18.2542 -0.526738 1.48556 17.7162 -1.16392 1.01693 
-2.20825 2.71496 -1.99041 -2.08504 2.81817 -1.71721 -1.8931 2.90269 -1.47788 
-1.66644 3.00262 -1.1606 -1.50835 3.00948 -0.682885 -1.45671 2.8732 -0.212399 
-1.46411 2.66262 0.119156 -1.48097 2.39557 0.400709 -1.47397 2.09498 0.698121 
-0.0862006 1.70047 -2.16351 2.51861 1.51159 -2.10497 5.1161 1.98239 -1.96452 
7.47371 2.55361 -1.65079 9.71336 2.88564 -1.20791 11.9528 3.28027 -0.739653 
14.1282 4.01176 -0.300246 16.0709 4.95545 0.0955656 17.5822 5.8716 0.465922 
-4.14284 3.87087 -2.27362 -5.77069 5.27466 -2.29999 -7.09817 6.25012 -2.1357 
-8.34772 6.70944 -1.67215 -9.7676 7.01602 -1.14967 -11.2006 7.33544 -0.778663 
-12.4543 7.5152 -0.425523 -13.6033 7.54788 0.0122337 -14.66 7.51661 0.445269 
0.408261 1.38642 0.791001 2.48594 1.20608 0.601771 4.72778 1.43013 0.535944 
7.05905 2.02315 0.708839 9.36429 2.67253 0.936294 11.546 3.26575 0.980164 
13.5985 4.06191 0.907317 15.5175 5.06235 0.868346 17.218 5.95311 0.870447 
-3.20848 2.64451 1.00673 -4.92848 3.74864 1.15444 -6.47817 5.045 1.49432 
-7.94358 6.26672 1.83812 -9.43606 7.15276 1.94419 -10.8665 7.66888 1.85484 
-12.1633 7.89243 1.68387 -13.393 7.87521 1.43162 -14.5443 7.68204 1.12269 
-0.912254 -5.93325 -1.74289 -0.893028 -6.30441 -1.4999 -0.911645 -6.69161 -1.27643 
-0.988116 -7.07084 -0.957288 -1.10702 -7.38448 -0.434356 -1.20748 -7.49365 0.17455 
-1.3053 -7.38605 0.686513 -1.4392 -7.19899 1.10865 -1.53006 -6.97288 1.51298 
0.638672 -5.73373 -2.07678 2.48933 -5.79286 -2.14901 4.52638 -5.79314 -2.16297 
6.62232 -5.72364 -2.04326 8.70169 -5.55845 -1.79376 10.6793 -5.34314 -1.53062 
12.4276 -5.00842 -1.23546 13.9823 -4.29887 -0.762927 15.5046 -3.15403 -0.132908 
-2.44402 -5.64372 -1.75787 -4.05359 -5.70426 -1.55279 -5.74208 -5.8474 -1.46254 
-7.38446 -6.00823 -1.42555 -8.96873 -5.96251 -1.26931 -10.5564 -5.67479 -1.00244 
-12.0265 -5.39558 -0.76629 -13.2592 -5.18821 -0.563649 -14.3437 -4.85945 -0.326114 
0.0541667 -6.63294 1.52185 1.98572 -6.52726 1.1539 4.197 -6.29182 0.797855 
6.56229 -5.9696 0.528562 8.91953 -5.72153 0.429868 10.9968 -5.45452 0.397381 
12.7321 -4.87283 0.326758 14.2961 -3.95966 0.322829 15.7387 -2.90794 0.420512 
-2.93896 -6.85568 1.98938 -4.45761 -6.95098 2.03334 -6.12275 -6.96801 2.00418 
-7.90165 -6.9633 1.93083 -9.66712 -6.85831 1.81408 -11.2763 -6.5233 1.59097 
-12.625 -6.04983 1.22827 -13.7031 -5.56687 0.789572 -14.5878 -5.01153 0.355382 
19.8449 7.24589 1.11072 20.9796 7.64661 1.36095 22.0582 7.46455 1.48051 
23.0076 6.58032 1.40858 23.4502 5.39262 1.25505 23.032 4.25549 1.1372 
21.8869 2.98987 1.0666 20.3673 1.43024 0.985553 18.687 -0.252102 0.800809 
-16.4392 6.82305 0.77447 -17.2141 5.87809 0.690097 -17.7955 4.55657 0.534795 
-18.1529 3.14389 0.340086 -18.25 1.80717 0.16475 -18.1574 0.441158 0.0040503 
-17.8949 -0.941544 -0.130356 -17.3069 -2.21962 -0.169069 -16.3844 -3.36305 -0.118659 
-8.92778 0.300762 -3.41743 -8.47709 0.83411 -3.56748 -7.51652 -0.0167741 -3.52429 
-7.82972 1.34475 -3.68319 -6.85808 0.476091 -3.56502 -5.77375 -0.4005 -3.43739 
-6.98355 1.78028 -3.70802 -5.93775 0.894533 -3.53676 -4.83474 0.0526405 -3.27655 
-3.44924 -0.822094 -3.20664 -5.98817 2.1869 -3.56248 -4.9573 1.19368 -3.50084 
-3.78234 0.320845 -3.17094 -2.27966 -0.491327 -3.03235 -0.563027 -1.29449 -3.16998 
-4.88901 2.48593 -3.24667 -3.92061 1.43017 -3.36228 -2.69069 0.428245 -3.19833 
-1.05238 -0.371223 -3.02797 0.823926 -1.02427 -3.13542 2.52226 -1.61401 -3.30421 
-3.72603 2.45093 -2.89875 -2.67418 1.49527 -3.07218 -1.272 0.552793 -3.14341 
0.512882 -0.239184 -3.11601 2.39903 -0.765076 -3.17797 4.05992 -1.17164 -3.30046 
5.37003 -1.54656 -3.3155 -2.47684 2.11524 -2.62476 -1.2413 1.32893 -2.773 
0.409419 0.67573 -2.93333 2.39959 0.115119 -3.07227 4.25681 -0.303415 -3.18194 
5.70956 -0.611974 -3.24107 6.86568 -0.91895 -3.22182 7.84287 -1.23373 -3.15494 
-11.2673 1.22828 -3.2626 -12.3674 2.09226 -3.10517 -10.9001 1.9369 -3.321 
-13.3618 3.04703 -2.78532 -11.908 2.87932 -3.08596 -10.4243 2.64387 -3.36111 
-14.1605 4.02138 -2.37087 -12.7226 3.85267 -2.69806 -11.2682 3.65137 -3.00882 
-9.78297 3.2924 -3.31493 -14.7297 5.01941 -1.93074 -13.3305 4.84735 -2.24217 
-11.8478 4.65921 -2.5673 -10.4464 4.38194 -2.89777 -8.83621 3.87643 -3.18839 
-15.0044 5.94449 -1.40766 -13.7089 5.8453 -1.74101 -12.2474 5.64926 -2.08052 
-10.8053 5.4011 -2.45662 -9.34549 4.99808 -2.8339 -7.6032 4.3585 -3.038 
-15.0222 6.65584 -0.782709 -13.8203 6.65895 -1.16607 -12.474 6.52185 -1.52304 
-11.0112 6.24397 -1.90755 -9.55582 5.90989 -2.39705 -8.04651 5.42084 -2.77869 
-6.35936 4.58358 -2.85523 -14.8978 7.15967 -0.144544 -13.7585 7.19213 -0.567432 
-12.5244 7.13169 -0.955519 -11.1413 6.87295 -1.29813 -9.64852 6.53157 -1.76618 
-8.24058 6.19497 -2.31399 -6.83444 5.55701 -2.60584 -5.24799 4.41043 -2.59063 
-13.5854 7.81083 0.724318 -12.3585 8.00003 1.00641 -12.4609 7.81517 0.236293 
-11.0527 8.03506 1.30423 -11.1814 8.02147 0.515773 -11.2544 7.73383 -0.226253 
-9.67533 7.78939 1.57458 -9.82746 8.1024 0.882783 -9.92666 7.96388 0.0381604 
-9.89899 7.51594 -0.620606 -8.21829 7.02286 1.60381 -8.4312 7.67608 1.14597 
-8.55682 7.94293 0.349998 -8.54244 7.69955 -0.466914 -8.42307 7.18802 -1.08926 
-6.71159 5.69968 1.25293 -6.9326 6.41455 0.993852 -7.09355 7.02369 0.4774 
-7.14146 7.25953 -0.303338 -7.10396 7.05894 -1.02213 -7.0846 6.67176 -1.60015 
-5.10784 4.2218 0.830126 -5.2589 4.75238 0.576565 -5.38618 5.31198 0.296911 
[...]
POINT_DATA 1002
FIELD FieldData 4
_paraPhi 1 1002 double
6.2831853072 3.1415926536 6.2831853072 3.1415926536 4.7123889804 4.7123889804 1.5707963268 1.5707963268 3.6951670125 
5.7296109483 2.5880182947 0.5535743589 6.2831853072 6.2831853072 6.2831853072 6.2831853072 3.1415926536 3.1415926536 
3.1415926536 3.1415926536 3.1415926536 6.1053039672 5.898798347 5.6768734901 5.4599499503 5.2659633393 5.1032165617 
4.9713148346 4.8656852733 4.7809517865 0.17788134 0.38438696014 0.60631181711 0.82323535693 1.0172219679 1.1799687454 
1.3118704726 1.4175000338 1.5022335207 6.1892828907 6.1070320098 6.035312792 5.9728339911 5.9183214791 5.8706119594 
5.8286879411 5.7916808611 5.7588591896 0.093902416448 0.17615329733 0.2478725152 0.31035131605 0.36486382811 0.41257334776 
0.45449736604 0.4915044461 0.52432611754 3.3194739936 3.5259796137 3.7479044707 3.9648280105 4.1588146215 4.321561399 
4.4534631262 4.5590926874 4.6438261743 2.9637113136 2.7572056934 2.5352808365 2.3183572967 2.1243706857 1.9616239082 
1.829722181 1.7240926197 1.6393591329 3.23549507 3.3177459509 3.3894651688 3.4519439696 3.5064564817 3.5541660013 
3.5960900196 3.6330970997 3.6659187711 3.0476902371 2.9654393563 2.8937201384 2.8312413375 2.7767288255 2.7290193058 
2.6870952876 2.6500882075 2.617266536 6.2831853072 6.2831853072 6.2831853072 6.2831853072 3.1415926536 3.1415926536 
3.1415926536 3.1415926536 3.1415926536 6.1053039672 5.898798347 5.6768734901 5.4599499503 5.2659633393 5.1032165617 
4.9713148346 4.8656852733 4.7809517865 0.17788134 0.38438696014 0.60631181711 0.82323535693 1.0172219679 1.1799687454 
1.3118704726 1.4175000338 1.5022335207 6.1892828907 6.1070320098 6.035312792 5.9728339911 5.9183214791 5.8706119594 
5.8286879411 5.7916808611 5.7588591896 0.093902416448 0.17615329733 0.2478725152 0.31035131605 0.36486382811 0.41257334776 
0.45449736604 0.4915044461 0.52432611754 3.3194739936 3.5259796137 3.7479044707 3.9648280105 4.1588146215 4.321561399 
4.4534631262 4.5590926874 4.6438261743 2.9637113136 2.7572056934 2.5352808365 2.3183572967 2.1243706857 1.9616239082 
1.829722181 1.7240926197 1.6393591329 3.23549507 3.3177459509 3.3894651688 3.4519439696 3.5064564817 3.5541660013 
3.5960900196 3.6330970997 3.6659187711 3.0476902371 2.9654393563 2.8937201384 2.8312413375 2.7767288255 2.7290193058 
2.6870952876 2.6500882075 2.617266536 4.7123889804 4.7123889804 4.7123889804 4.7123889804 4.7123889804 4.7123889804 
4.7123889804 4.7123889804 4.7123889804 4.6087898617 4.4991390697 4.3857031936 4.2712800401 4.1588146215 4.0509635631 
3.94975894 3.8564636551 3.7716124825 4.8159880991 4.9256388911 5.0390747672 5.1534979207 5.2659633393 5.3738143976 
5.4750190208 5.5683143056 5.6531654782 4.6087898617 4.4991390697 4.3857031936 4.2712800401 4.1588146215 4.0509635631 
3.94975894 3.8564636551 3.7716124825 4.8159880991 4.9256388911 5.0390747672 5.1534979207 5.2659633393 5.3738143976 
5.4750190208 5.5683143056 5.6531654782 1.5707963268 1.5707963268 1.5707963268 1.5707963268 1.5707963268 1.5707963268 
1.5707963268 1.5707963268 1.5707963268 1.6743954455 1.7840462375 1.8974821136 2.0119052671 2.1243706857 2.232221744 
2.3334263672 2.426721652 2.5115728246 1.4671972081 1.3575464161 1.24411054 1.1296873865 1.0172219679 0.90937090954 
0.80816628637 0.71487100155 0.63001982895 1.6743954455 1.7840462375 1.8974821136 2.0119052671 2.1243706857 2.232221744 
2.3334263672 2.426721652 2.5115728246 1.4671972081 1.3575464161 1.24411054 1.1296873865 1.0172219679 0.90937090954 
0.80816628637 0.71487100155 0.63001982895 3.6007720849 3.4966939854 3.3839471039 3.2645756454 3.1415926536 3.0186096618 
2.8992382033 2.7864913217 2.6824132222 5.8240058758 5.9280839753 6.0408308569 6.1602023154 6.2831853072 0.12298299178 
0.2423544503 0.35510133185 0.45917943135 6.0560271438 5.7885595667 5.9702140275 5.5125918794 5.6029703303 5.7885595667 
5.2659633393 5.2659633393 5.2659633393 5.2659633393 5.0674903122 5.0120975802 4.9155579264 4.7123889804 4.1588146215 
4.9155579264 4.8353719722 4.7123889804 4.5092200343 4.1588146215 3.6362183941 4.8004512023 4.7123889804 4.5894059886 
4.4126803806 4.1588146215 3.8218076305 3.4545639333 4.7123889804 4.6243267584 4.5092200343 4.3572876485 4.1588146215 
3.9121860814 3.6362183941 3.368750817 6.0174235957 5.9434319871 5.8263323547 5.8809213739 5.7674481418 5.6279784266 
5.8278025282 5.718968232 5.5891129425 5.4372443565 5.7823484065 5.678536687 5.5575666702 5.4192596322 5.2659633393 
5.743164462 5.6444075337 5.5314983644 5.4046708639 5.2659633393 5.1195510325 5.7091357773 5.6152775188 5.5096229709 
5.3926039573 5.2659633393 5.1329233157 4.9978930058 5.6793730533 5.5901633916 5.4910209005 5.3824597928 5.2659633393 
5.1440684722 5.0201624502 4.8979782167 5.5683143056 5.4750190208 5.4750190208 5.3738143976 5.3738143976 5.3738143976 
5.2659633393 5.2659633393 5.2659633393 5.2659633393 5.1534979207 5.1534979207 5.1534979207 5.1534979207 5.1534979207 
5.0390747672 5.0390747672 5.0390747672 5.0390747672 5.0390747672 5.0390747672 4.9256388911 4.9256388911 4.9256388911 
4.9256388911 4.9256388911 4.9256388911 4.9256388911 4.8159880991 4.8159880991 4.8159880991 4.8159880991 4.8159880991 
4.8159880991 4.8159880991 4.8159880991 4.6087898617 4.6087898617 4.4991390697 4.6087898617 4.4991390697 4.3857031936 
4.6087898617 4.4991390697 4.3857031936 4.2712800401 4.6087898617 4.4991390697 4.3857031936 4.2712800401 4.1588146215 
4.6087898617 4.4991390697 4.3857031936 4.2712800401 4.1588146215 4.0509635631 4.6087898617 4.4991390697 4.3857031936 
4.2712800401 4.1588146215 4.0509635631 3.94975894 4.6087898617 4.4991390697 4.3857031936 4.2712800401 4.1588146215 
4.0509635631 3.94975894 3.8564636551 4.526799744 4.4046155105 4.426884955 4.2807094886 4.2918546451 4.3052269283 
4.1588146215 4.1588146215 4.1588146215 4.1588146215 4.042318168 4.0321740035 4.0201070968 4.0055183285 3.9875336042 
3.9337570603 3.9151549899 3.8932795963 3.8672112905 3.8356650183 3.7967995342 3.8346145692 3.809500442 3.7803704271 
3.7462412737 3.7058097288 3.657329819 3.5984456061 3.7454049075 3.7156421835 3.6816134988 3.6424295543 3.5969754326 
3.5438565869 3.4813459737 3.4073543651 3.5642842451 3.4524645613 3.5233842518 3.3320300872 3.403123212 3.4773852225 
3.20576226 3.2746326772 3.348015857 3.4255060145 3.0774230472 3.1415926536 3.2112816139 3.2864685043 3.3668817272 
2.95115522 3.00855263 3.0719036933 3.1415926536 3.2178377658 3.3005964304 2.8307207459 2.8800620952 2.9351694502 
2.9967168029 3.0653475414 3.1415926536 3.225752376 2.718901062 2.7598010554 2.8058000847 2.8576792927 2.91630358 
2.9825888767 3.0574329311 3.1415926536 3.5642842451 3.5233842518 3.4524645613 3.4773852225 3.403123212 3.3320300872 
3.4255060145 3.348015857 3.2746326772 3.20576226 3.3668817272 3.2864685043 3.2112816139 3.1415926536 3.0774230472 
3.3005964304 3.2178377658 3.1415926536 3.0719036933 3.00855263 2.95115522 3.225752376 3.1415926536 3.0653475414 
2.9967168029 2.9351694502 2.8800620952 2.8307207459 3.1415926536 3.0574329311 2.9825888767 2.91630358 2.8576792927 
2.8058000847 2.7598010554 2.718901062 4.526799744 4.426884955 4.4046155105 4.3052269283 4.2918546451 4.2807094886 
4.1588146215 4.1588146215 4.1588146215 4.1588146215 3.9875336042 4.0055183285 4.0201070968 4.0321740035 4.042318168 
3.7967995342 3.8356650183 3.8672112905 3.8932795963 3.9151549899 3.9337570603 3.5984456061 3.657329819 3.7058097288 
3.7462412737 3.7803704271 3.809500442 3.8346145692 3.4073543651 3.4813459737 3.5438565869 3.5969754326 3.6424295543 
3.6816134988 3.7156421835 3.7454049075 4.7123889804 4.8004512023 4.6243267584 4.9155579264 4.7123889804 4.5092200343 
5.0674903122 4.8353719722 4.5894059886 4.3572876485 5.2659633393 5.0120975802 4.7123889804 4.4126803806 4.1588146215 
5.5125918794 5.2659633393 4.9155579264 4.5092200343 4.1588146215 3.9121860814 5.7885595667 5.6029703303 5.2659633393 
4.7123889804 4.1588146215 3.8218076305 3.6362183941 6.0560271438 5.9702140275 5.7885595667 5.2659633393 4.1588146215 
3.6362183941 3.4545639333 3.368750817 0.22715816343 0.49462574053 0.3129712797 0.77059342779 0.68021497688 0.49462574053 
1.0172219679 1.0172219679 1.0172219679 1.0172219679 1.2156949949 1.271087727 1.3676273807 1.5707963268 2.1243706857 
1.3676273807 1.447813335 1.5707963268 1.7739652728 2.1243706857 2.6469669131 1.4827341049 1.5707963268 1.6937793186 
1.8705049266 2.1243706857 2.4613776767 2.8286213739 1.5707963268 1.6588585487 1.7739652728 1.9258976586 2.1243706857 
2.3709992258 2.6469669131 2.9144344902 1.7563855631 1.8785697967 1.8563003522 2.0024758186 1.9913306621 1.9779583789 
2.1243706857 2.1243706857 2.1243706857 2.1243706857 2.2408671392 2.2510113037 2.2630782103 2.2776669786 2.295651703 
2.3494282469 2.3680303173 2.3899057108 2.4159740166 2.4475202889 2.486385773 2.448570738 2.4736848652 2.5028148801 
2.5369440334 2.5773755784 2.6258554882 2.6847397011 2.5377803997 2.5675431237 2.6015718084 2.6407557529 2.6862098746 
2.7393287203 2.8018393335 2.8758309421 1.6743954455 1.6743954455 1.7840462375 1.6743954455 1.7840462375 1.8974821136 
1.6743954455 1.7840462375 1.8974821136 2.0119052671 1.6743954455 1.7840462375 1.8974821136 2.0119052671 2.1243706857 
1.6743954455 1.7840462375 1.8974821136 2.0119052671 2.1243706857 2.232221744 1.6743954455 1.7840462375 1.8974821136 
2.0119052671 2.1243706857 2.232221744 2.3334263672 1.6743954455 1.7840462375 1.8974821136 2.0119052671 2.1243706857 
2.232221744 2.3334263672 2.426721652 1.4671972081 1.3575464161 1.4671972081 1.24411054 1.3575464161 1.4671972081 
1.1296873865 1.24411054 1.3575464161 1.4671972081 1.0172219679 1.1296873865 1.24411054 1.3575464161 1.4671972081 
0.90937090954 1.0172219679 1.1296873865 1.24411054 1.3575464161 1.4671972081 0.80816628637 0.90937090954 1.0172219679 
1.1296873865 1.24411054 1.3575464161 1.4671972081 0.71487100155 0.80816628637 0.90937090954 1.0172219679 1.1296873865 
1.24411054 1.3575464161 1.4671972081 0.60381225391 0.57404952988 0.69302191562 0.54002084522 0.66790778838 0.79216440667 
0.50083690068 0.63877777351 0.77356233629 0.90072551443 0.45538277901 0.60464862014 0.75168694275 0.89058134991 1.0172219679 
0.40226393329 0.56421707518 0.72561863695 0.87851444325 1.0172219679 1.139116835 0.33975332011 0.51573716537 0.69407236469 
0.86392567495 1.0172219679 1.1502619915 1.2630228569 0.26576171152 0.45685295248 0.6552068806 0.84594095064 1.0172219679 
1.1636342747 1.2852923014 1.3852070904 0.22715816343 0.3129712797 0.49462574053 0.49462574053 0.68021497688 0.77059342779 
1.0172219679 1.0172219679 1.0172219679 1.0172219679 2.1243706857 1.5707963268 1.3676273807 1.271087727 1.2156949949 
2.6469669131 2.1243706857 1.7739652728 1.5707963268 1.447813335 1.3676273807 2.8286213739 2.4613776767 2.1243706857 
1.8705049266 1.6937793186 1.5707963268 1.4827341049 2.9144344902 2.6469669131 2.3709992258 2.1243706857 1.9258976586 
1.7739652728 1.6588585487 1.5707963268 1.7563855631 1.8563003522 1.8785697967 1.9779583789 1.9913306621 2.0024758186 
2.1243706857 2.1243706857 2.1243706857 2.1243706857 2.295651703 2.2776669786 2.2630782103 2.2510113037 2.2408671392 
2.486385773 2.4475202889 2.4159740166 2.3899057108 2.3680303173 2.3494282469 2.6847397011 2.6258554882 2.5773755784 
2.5369440334 2.5028148801 2.4736848652 2.448570738 2.8758309421 2.8018393335 2.7393287203 2.6862098746 2.6407557529 
2.6015718084 2.5675431237 2.5377803997 5.8604937156 5.901393709 5.9723133995 5.9473927383 6.0216547488 6.0927478736 
5.9992719463 6.0767621038 6.1501452836 6.2190157008 6.0578962336 6.1383094565 6.2134963469 0 0.064169606361 
6.1241815303 6.206940195 6.2831853072 0.069688960264 0.13304002361 0.19043743361 6.1990255847 0 0.07624511221 
0.14487585072 0.20642320337 0.26153055843 0.3108719077 0 0.084159722458 0.15900377685 0.22528907359 0.28391336087 
0.3357925689 0.38179159818 0.42269159155 5.8604937156 5.9723133995 5.901393709 6.0927478736 6.0216547488 5.9473927383 
6.2190157008 6.1501452836 6.0767621038 5.9992719463 0.064169606361 0 6.2134963469 6.1383094565 6.0578962336 
0.19043743361 0.13304002361 0.069688960264 6.2831853072 6.206940195 6.1241815303 0.3108719077 0.26153055843 0.20642320337 
0.14487585072 0.07624511221 6.2831853072 6.1990255847 0.42269159155 0.38179159818 0.3357925689 0.28391336087 0.22528907359 
0.15900377685 0.084159722458 0 5.6793730533 5.7091357773 5.5901633916 5.743164462 5.6152775188 5.4910209005 
5.7823484065 5.6444075337 5.5096229709 5.3824597928 5.8278025282 5.678536687 5.5314983644 5.3926039573 5.2659633393 
5.8809213739 5.718968232 5.5575666702 5.4046708639 5.2659633393 5.1440684722 5.9434319871 5.7674481418 5.5891129425 
5.4192596322 5.2659633393 5.1329233157 5.0201624502 6.0174235957 5.8263323547 5.6279784266 5.4372443565 5.2659633393 
5.1195510325 4.9978930058 4.8979782167 1.3852070904 1.2852923014 1.2630228569 1.1636342747 1.1502619915 1.139116835 
1.0172219679 1.0172219679 1.0172219679 1.0172219679 0.84594095064 0.86392567495 0.87851444325 0.89058134991 0.90072551443 
0.6552068806 0.69407236469 0.72561863695 0.75168694275 0.77356233629 0.79216440667 0.45685295248 0.51573716537 0.56421707518 
0.60464862014 0.63877777351 0.66790778838 0.69302191562 0.26576171152 0.33975332011 0.40226393329 0.45538277901 0.50083690068 
0.54002084522 0.57404952988 0.60381225391 
_paraPhiHalf 1 1002 double
0 3.1415926536 0 3.1415926536 1.5707963268 1.5707963268 1.5707963268 1.5707963268 2.5880182947 
0.5535743589 2.5880182947 0.5535743589 0 0 0 0 3.1415926536 3.1415926536 
3.1415926536 3.1415926536 3.1415926536 0.17788134 0.38438696014 0.60631181711 0.82323535693 1.0172219679 1.1799687454 
1.3118704726 1.4175000338 1.5022335207 0.17788134 0.38438696014 0.60631181711 0.82323535693 1.0172219679 1.1799687454 
1.3118704726 1.4175000338 1.5022335207 0.093902416448 0.17615329733 0.2478725152 0.31035131605 0.36486382811 0.41257334776 
0.45449736604 0.4915044461 0.52432611754 0.093902416448 0.17615329733 0.2478725152 0.31035131605 0.36486382811 0.41257334776 
0.45449736604 0.4915044461 0.52432611754 2.9637113136 2.7572056934 2.5352808365 2.3183572967 2.1243706857 1.9616239082 
1.829722181 1.7240926197 1.6393591329 2.9637113136 2.7572056934 2.5352808365 2.3183572967 2.1243706857 1.9616239082 
1.829722181 1.7240926197 1.6393591329 3.0476902371 2.9654393563 2.8937201384 2.8312413375 2.7767288255 2.7290193058 
2.6870952876 2.6500882075 2.617266536 3.0476902371 2.9654393563 2.8937201384 2.8312413375 2.7767288255 2.7290193058 
2.6870952876 2.6500882075 2.617266536 0 0 0 0 3.1415926536 3.1415926536 
3.1415926536 3.1415926536 3.1415926536 0.17788134 0.38438696014 0.60631181711 0.82323535693 1.0172219679 1.1799687454 
1.3118704726 1.4175000338 1.5022335207 0.17788134 0.38438696014 0.60631181711 0.82323535693 1.0172219679 1.1799687454 
1.3118704726 1.4175000338 1.5022335207 0.093902416448 0.17615329733 0.2478725152 0.31035131605 0.36486382811 0.41257334776 
0.45449736604 0.4915044461 0.52432611754 0.093902416448 0.17615329733 0.2478725152 0.31035131605 0.36486382811 0.41257334776 
0.45449736604 0.4915044461 0.52432611754 2.9637113136 2.7572056934 2.5352808365 2.3183572967 2.1243706857 1.9616239082 
1.829722181 1.7240926197 1.6393591329 2.9637113136 2.7572056934 2.5352808365 2.3183572967 2.1243706857 1.9616239082 
1.829722181 1.7240926197 1.6393591329 3.0476902371 2.9654393563 2.8937201384 2.8312413375 2.7767288255 2.7290193058 
2.6870952876 2.6500882075 2.617266536 3.0476902371 2.9654393563 2.8937201384 2.8312413375 2.7767288255 2.7290193058 
2.6870952876 2.6500882075 2.617266536 1.5707963268 1.5707963268 1.5707963268 1.5707963268 1.5707963268 1.5707963268 
1.5707963268 1.5707963268 1.5707963268 1.6743954455 1.7840462375 1.8974821136 2.0119052671 2.1243706857 2.232221744 
2.3334263672 2.426721652 2.5115728246 1.4671972081 1.3575464161 1.24411054 1.1296873865 1.0172219679 0.90937090954 
0.80816628637 0.71487100155 0.63001982895 1.6743954455 1.7840462375 1.8974821136 2.0119052671 2.1243706857 2.232221744 
2.3334263672 2.426721652 2.5115728246 1.4671972081 1.3575464161 1.24411054 1.1296873865 1.0172219679 0.90937090954 
0.80816628637 0.71487100155 0.63001982895 1.5707963268 1.5707963268 1.5707963268 1.5707963268 1.5707963268 1.5707963268 
1.5707963268 1.5707963268 1.5707963268 1.6743954455 1.7840462375 1.8974821136 2.0119052671 2.1243706857 2.232221744 
2.3334263672 2.426721652 2.5115728246 1.4671972081 1.3575464161 1.24411054 1.1296873865 1.0172219679 0.90937090954 
0.80816628637 0.71487100155 0.63001982895 1.6743954455 1.7840462375 1.8974821136 2.0119052671 2.1243706857 2.232221744 
2.3334263672 2.426721652 2.5115728246 1.4671972081 1.3575464161 1.24411054 1.1296873865 1.0172219679 0.90937090954 
0.80816628637 0.71487100155 0.63001982895 2.6824132222 2.7864913217 2.8992382033 3.0186096618 3.1415926536 3.0186096618 
2.8992382033 2.7864913217 2.6824132222 0.45917943135 0.35510133185 0.2423544503 0.12298299178 0 0.12298299178 
0.2423544503 0.35510133185 0.45917943135 0.22715816343 0.49462574053 0.3129712797 0.77059342779 0.68021497688 0.49462574053 
1.0172219679 1.0172219679 1.0172219679 1.0172219679 1.2156949949 1.271087727 1.3676273807 1.5707963268 2.1243706857 
1.3676273807 1.447813335 1.5707963268 1.7739652728 2.1243706857 2.6469669131 1.4827341049 1.5707963268 1.6937793186 
1.8705049266 2.1243706857 2.4613776767 2.8286213739 1.5707963268 1.6588585487 1.7739652728 1.9258976586 2.1243706857 
2.3709992258 2.6469669131 2.9144344902 0.26576171152 0.33975332011 0.45685295248 0.40226393329 0.51573716537 0.6552068806 
0.45538277901 0.56421707518 0.69407236469 0.84594095064 0.50083690068 0.60464862014 0.72561863695 0.86392567495 1.0172219679 
0.54002084522 0.63877777351 0.75168694275 0.87851444325 1.0172219679 1.1636342747 0.57404952988 0.66790778838 0.77356233629 
0.89058134991 1.0172219679 1.1502619915 1.2852923014 0.60381225391 0.69302191562 0.79216440667 0.90072551443 1.0172219679 
1.139116835 1.2630228569 1.3852070904 0.71487100155 0.80816628637 0.80816628637 0.90937090954 0.90937090954 0.90937090954 
1.0172219679 1.0172219679 1.0172219679 1.0172219679 1.1296873865 1.1296873865 1.1296873865 1.1296873865 1.1296873865 
1.24411054 1.24411054 1.24411054 1.24411054 1.24411054 1.24411054 1.3575464161 1.3575464161 1.3575464161 
1.3575464161 1.3575464161 1.3575464161 1.3575464161 1.4671972081 1.4671972081 1.4671972081 1.4671972081 1.4671972081 
1.4671972081 1.4671972081 1.4671972081 1.6743954455 1.6743954455 1.7840462375 1.6743954455 1.7840462375 1.8974821136 
1.6743954455 1.7840462375 1.8974821136 2.0119052671 1.6743954455 1.7840462375 1.8974821136 2.0119052671 2.1243706857 
1.6743954455 1.7840462375 1.8974821136 2.0119052671 2.1243706857 2.232221744 1.6743954455 1.7840462375 1.8974821136 
2.0119052671 2.1243706857 2.232221744 2.3334263672 1.6743954455 1.7840462375 1.8974821136 2.0119052671 2.1243706857 
2.232221744 2.3334263672 2.426721652 1.7563855631 1.8785697967 1.8563003522 2.0024758186 1.9913306621 1.9779583789 
2.1243706857 2.1243706857 2.1243706857 2.1243706857 2.2408671392 2.2510113037 2.2630782103 2.2776669786 2.295651703 
2.3494282469 2.3680303173 2.3899057108 2.4159740166 2.4475202889 2.486385773 2.448570738 2.4736848652 2.5028148801 
2.5369440334 2.5773755784 2.6258554882 2.6847397011 2.5377803997 2.5675431237 2.6015718084 2.6407557529 2.6862098746 
2.7393287203 2.8018393335 2.8758309421 2.718901062 2.8307207459 2.7598010554 2.95115522 2.8800620952 2.8058000847 
3.0774230472 3.00855263 2.9351694502 2.8576792927 3.0774230472 3.1415926536 3.0719036933 2.9967168029 2.91630358 
2.95115522 3.00855263 3.0719036933 3.1415926536 3.0653475414 2.9825888767 2.8307207459 2.8800620952 2.9351694502 
2.9967168029 3.0653475414 3.1415926536 3.0574329311 2.718901062 2.7598010554 2.8058000847 2.8576792927 2.91630358 
2.9825888767 3.0574329311 3.1415926536 2.718901062 2.7598010554 2.8307207459 2.8058000847 2.8800620952 2.95115522 
2.8576792927 2.9351694502 3.00855263 3.0774230472 2.91630358 2.9967168029 3.0719036933 3.1415926536 3.0774230472 
2.9825888767 3.0653475414 3.1415926536 3.0719036933 3.00855263 2.95115522 3.0574329311 3.1415926536 3.0653475414 