# vtk DataFile Version 5.1
vtk output
ASCII
DATASET POLYDATA
POINTS 1002 float
-10.2557 0.209318 -1.85049 -21.0859 -16.2855 -5.31482 -9.11507 -2.70079 4.4149 
-20.2397 -16.9732 -0.409624 -11.8905 -7.3871 -2.49516 -12.0097 -8.39678 0.800281 
-20.35 -4.86151 -0.384733 -20.5757 -5.79527 3.28723 -15.3897 -28.2561 -5.25708 
-0.875359 -0.45364 0.519471 -23.8321 -22.3334 -3.90636 -10.9852 4.93051 3.03698 
-11.1488 -0.575612 -1.99932 -12.2131 -1.51858 -2.12197 -13.4221 -2.71398 -2.08302 
-14.8721 -4.2505 -1.94912 -16.6638 -6.16792 -2.10798 -18.4557 -8.37186 -2.73626 
-19.7281 -10.6375 -3.52521 -20.4404 -12.7653 -4.21259 -20.8481 -14.6545 -4.80401 
-9.89833 -0.220374 -2.06206 -9.53994 -0.799743 -2.23284 -9.24696 -1.45384 -2.45698 
-9.10441 -2.16043 -2.72885 -9.14754 -3.04616 -2.88604 -9.35433 -4.11813 -2.89024 
-9.70435 -5.17156 -2.85716 -10.2254 -6.06048 -2.80728 -10.964 -6.77879 -2.6858 
-11.1323 0.0650904 -1.64396 -12.096 -0.14888 -1.39654 -13.1725 -0.422455 -1.19002 
-14.3182 -0.83191 -0.997073 -15.4635 -1.42805 -0.769408 -16.5937 -2.13581 -0.603635 
-17.6756 -2.88358 -0.537131 -18.6551 -3.63078 -0.476307 -19.5404 -4.30156 -0.408136 
-9.18118 0.716304 -1.86571 -7.97669 1.16478 -1.84895 -6.62702 1.50348 -1.77875 
-5.17473 1.73665 -1.70075 -3.7718 1.83121 -1.64392 -2.63803 1.71138 -1.4798 
-1.85849 1.37344 -1.07769 -1.33401 0.855908 -0.516483 -0.997115 0.212956 0.0402431 
-10.002 0.900957 -1.59715 -9.8063 1.65646 -1.31164 -9.66873 2.43395 -0.97816 
-9.61623 3.12423 -0.540159 -9.67526 3.71401 -0.00904447 -9.83092 4.2553 0.517003 
-10.0734 4.6904 1.04753 -10.3956 4.93293 1.67569 -10.7287 4.9927 2.3754 
-20.5441 -16.0645 -5.23451 -20.0197 -15.713 -5.06608 -19.5384 -15.2416 -4.80982 
-19.0405 -14.5798 -4.47419 -18.48 -13.5953 -4.01426 -17.7809 -12.1962 -3.43676 
-16.72 -10.5023 -2.90208 -15.2105 -8.93134 -2.57318 -13.4994 -7.87962 -2.46897 
-21.4998 -15.4111 -5.04479 -21.8295 -14.3568 -4.68977 -22.0126 -13.1736 -4.21707 
-22.068 -11.8949 -3.65607 -22.0175 -10.5044 -3.08274 -21.8201 -9.09751 -2.49834 
-21.4766 -7.82166 -1.88964 -21.0773 -6.69532 -1.31808 -20.6976 -5.70174 -0.822469 
-20.864 -17.7833 -5.73198 -20.5297 -19.4647 -6.09522 -20.0769 -21.2878 -6.39082 
-19.4292 -23.1258 -6.62343 -18.5744 -24.904 -6.75832 -17.6745 -26.4935 -6.75901 
-16.8478 -27.6296 -6.61051 -16.1163 -28.2178 -6.28848 -15.5901 -28.3884 -5.81099 
-21.5059 -17.3042 -5.60045 -21.9016 -18.3119 -5.81712 -22.2756 -19.3638 -5.94938 
-22.5926 -20.4665 -5.96867 -22.8165 -21.4846 -5.86622 -23.0376 -22.2445 -5.68516 
-23.3411 -22.664 -5.40534 -23.6307 -22.771 -4.96947 -23.7875 -22.6409 -4.43287 
-10.0811 -3.50088 4.35758 -11.2162 -4.38334 4.2271 -12.6243 -5.32842 3.96636 
-14.309 -6.42034 3.55121 -16.0394 -7.82449 3.00801 -17.5204 -9.58224 2.33823 
-18.6391 -11.5287 1.56005 -19.4255 -13.4512 0.789901 -19.9364 -15.2617 0.130511 
-8.99098 -3.14734 4.08942 -8.86731 -3.72816 3.77749 -8.75763 -4.44857 3.51017 
-8.76568 -5.15913 3.17617 -8.98081 -5.79268 2.74698 -9.37241 -6.42626 2.32321 
-9.88507 -7.04531 1.92204 -10.5185 -7.5627 1.51718 -11.2499 -7.98766 1.13785 
-9.91231 -2.76726 4.63212 -10.9643 -2.8593 4.70643 -12.2754 -3.01196 4.70245 
-13.7499 -3.31429 4.72544 -15.2736 -3.7649 4.72084 -16.7384 -4.24288 4.61331 
-18.0158 -4.6638 4.42356 -19.0369 -5.03535 4.1261 -19.859 -5.40186 3.71466 
-8.1042 -2.22396 4.23035 -7.06235 -1.79632 3.99098 -6.01715 -1.43116 3.72643 
-4.97278 -1.10862 3.40206 -3.95515 -0.810834 2.99497 -3.05116 -0.583426 2.58151 
-2.27148 -0.466158 2.18426 -1.58497 -0.423301 1.71602 -1.08412 -0.420421 1.14062 
-8.62696 -1.90041 4.59476 -8.17108 -0.887082 4.69554 -7.88551 0.320583 4.70769 
-7.8744 1.55889 4.65463 -8.10146 2.71119 4.55112 -8.48234 3.74431 4.44563 
-9.02834 4.52851 4.32814 -9.72829 4.94264 4.05775 -10.4306 5.03518 3.58467 
-19.7972 -16.5624 -0.365659 -19.2776 -16.0077 -0.266003 -18.6678 -15.3022 -0.0973306 
-18.0391 -14.3773 0.0897386 -17.417 -13.2051 0.274232 -16.6654 -11.9227 0.493608 
-15.6769 -10.7211 0.726681 -14.503 -9.70519 0.887548 -13.2501 -8.92447 0.912258 
-20.5286 -16.1978 -0.133943 -20.8238 -15.269 0.178461 -21.0836 -14.2268 0.567374 
-21.2538 -13.0766 0.989712 -21.3275 -11.8052 1.38719 -21.3284 -10.5196 1.82361 
-21.2485 -9.30911 2.31033 -21.0758 -8.10804 2.72956 -20.8367 -6.90345 3.03999 
-20.1513 -18.5431 -0.898066 -19.9313 -20.3403 -1.36931 -19.5163 -22.28 -1.70991 
-18.8746 -24.1308 -2.00846 -18.1199 -25.694 -2.50778 -17.3927 -26.9486 -3.12083 
-16.6637 -27.8848 -3.62143 -15.9466 -28.4127 -4.11399 -15.4659 -28.504 -4.70723 
-20.6356 -18.2469 -0.734444 -21.0333 -19.5104 -1.07762 -21.4096 -20.6448 -1.44338 
-21.7522 -21.6151 -1.80638 -22.1171 -22.3821 -2.15334 -22.5153 -22.8599 -2.50027 
-22.8744 -23.0307 -2.84954 -23.1941 -22.9423 -3.19494 -23.5201 -22.6776 -3.54727 
-11.5942 -7.57824 -2.3527 -11.3272 -7.77805 -2.12962 -11.0943 -7.99639 -1.86635 
-10.9331 -8.2216 -1.55662 -10.8679 -8.41301 -1.16234 -10.9245 -8.52856 -0.732154 
-11.1204 -8.543 -0.325192 -11.4073 -8.48366 0.0760252 -11.7156 -8.42185 0.465482 
-13.9365 -8.47487 -2.33605 -15.8116 -10.5104 -2.52215 -16.9007 -13.4396 -3.12795 
-17.2705 -16.5865 -3.86672 -17.4065 -19.4604 -4.43557 -17.3549 -22.0674 -4.8158 
-16.959 -24.2991 -5.09584 -16.3352 -25.991 -5.29514 -15.7339 -27.2617 -5.36462 
-9.82023 -6.93223 -2.70435 -8.01596 -6.51555 -2.79365 -6.48492 -5.81976 -2.6317 
-5.08796 -5.02349 -2.32925 -3.90642 -4.30711 -1.96053 -2.96347 -3.53835 -1.48704 
-2.08969 -2.72131 -0.992685 -1.33906 -1.95598 -0.538487 -0.921519 -1.20257 -0.0389864 
-13.561 -9.29364 0.515584 -15.006 -10.8105 0.0306688 -16.0736 -13.0852 -0.721378 
-16.7676 -15.9364 -1.6508 -17.1637 -18.9055 -2.50113 -17.1307 -21.5899 -3.1218 
-16.6706 -23.8846 -3.64826 -16.0746 -25.7978 -4.21617 -15.6051 -27.2597 -4.77471 
-10.2603 -7.84629 0.796974 -8.47378 -7.44438 0.802157 -6.73706 -7.01734 0.910437 
-5.11366 -6.45658 1.04644 -3.78311 -5.73384 1.06197 -2.78814 -4.82541 0.965207 
-1.95443 -3.77298 0.850264 -1.28173 -2.67423 0.738163 -0.92092 -1.56278 0.623263 
-20.6239 -4.70546 -0.113852 -20.8985 -4.55779 0.20765 -21.1598 -4.41905 0.610736 
-21.3736 -4.27307 1.11439 -21.4687 -4.19498 1.68887 -21.422 -4.3263 2.2429 
-21.2802 -4.65227 2.684 -21.0789 -5.03168 2.98101 -20.8356 -5.40931 3.16408 
-21.3409 -5.95441 -0.701099 -22.3087 -7.33993 -1.11775 -23.2303 -8.94815 -1.56845 
-24.078 -10.5495 -2.00907 -24.6658 -12.3741 -2.52855 -24.8946 -14.9312 -3.16789 
-24.8974 -17.7961 -3.71649 -24.7166 -19.9819 -3.96888 -24.3232 -21.3276 -3.97802 
-19.4926 -3.75334 0.0346001 -18.597 -2.51978 0.447646 -17.7401 -1.14946 0.835485 
-16.879 0.163951 1.20594 -15.8957 1.25847 1.59259 -14.801 2.20844 1.97261 
-13.7419 3.09215 2.28351 -12.8018 3.86088 2.53337 -11.9132 4.47391 2.78061 
-21.4637 -6.95384 2.74566 -22.35 -8.30358 2.15422 -23.0845 -9.8161 1.36256 
-23.6564 -11.5962 0.38893 -24.1679 -13.7289 -0.492182 -24.5953 -16.0142 -1.22347 
-24.7466 -18.1253 -1.99572 -24.5488 -19.8791 -2.77793 -24.1803 -21.2515 -3.41357 
-19.8787 -4.5017 3.78837 -19.1626 -3.18313 4.27763 -18.3333 -1.79061 4.58871 
-17.2596 -0.330741 4.6707 -16.0455 1.08022 4.66177 -14.8758 2.32113 4.57801 
-13.7531 3.30852 4.3066 -12.7027 4.02406 3.90223 -11.7959 4.5399 3.47835 
-15.4753 -29.2174 -5.36742 -16.2242 -29.9326 -5.38163 -17.6331 -30.1471 -5.34742 
-19.0646 -29.6941 -5.33003 -20.0434 -28.7885 -5.28052 -20.9428 -27.8013 -5.10038 
-21.9744 -26.6904 -4.80058 -22.7932 -25.2488 -4.46253 -23.3409 -23.683 -4.15683 
-1.09763 0.720085 0.821998 -1.53407 1.87615 1.09181 -2.26148 2.83919 1.26932 
-3.32854 3.64561 1.44151 -4.50146 4.43033 1.68215 -5.623 5.12292 1.93838 
-6.89294 5.53349 2.22155 -8.36234 5.58245 2.5578 -9.78566 5.33573 2.85376 
-10.8999 -1.1133 -2.21357 -10.6621 -1.79359 -2.38079 -12.0853 -2.18256 -2.30042 
-10.5209 -2.51557 -2.59086 -11.9955 -2.92175 -2.43868 -13.4709 -3.47588 -2.20371 
-10.5856 -3.31237 -2.80188 -12.0589 -3.67761 -2.5948 -13.6484 -4.27215 -2.33623 
-15.23 -5.16063 -2.12568 -10.8703 -4.27284 -2.8738 -12.3973 -4.56758 -2.70382 
-14.0475 -5.19434 -2.48206 -15.7681 -6.22249 -2.38319 -17.2592 -7.37717 -2.4797 
-11.3085 -5.27538 -2.80465 -12.9999 -5.61288 -2.68611 -14.6987 -6.36913 -2.57821 
-16.4066 -7.55759 -2.65259 -17.8621 -8.83911 -2.90743 -18.9091 -9.87693 -3.22798 
-11.8848 -6.18944 -2.68528 -13.7414 -6.69477 -2.59125 -15.4917 -7.71142 -2.62773 
-17.0258 -9.10294 -2.89607 -18.2873 -10.473 -3.31493 -19.1738 -11.5106 -3.70344 
-19.8242 -12.2314 -4.00056 -12.6296 -7.04283 -2.56828 -14.5032 -7.80089 -2.53607 
-16.2153 -9.11103 -2.71704 -17.5154 -10.6844 -3.14784 -18.4755 -12.0935 -3.68475 
-19.1922 -13.104 -4.13156 -19.7416 -13.7795 -4.44428 -20.2767 -14.2798 -4.66279 
-8.69011 0.218915 -2.05321 -7.37785 0.576974 -2.05869 -8.22838 -0.401679 -2.26799 
-5.95728 0.822892 -2.0256 -6.86356 -0.115195 -2.33743 -7.86985 -1.06734 -2.56617 
-4.47441 0.940247 -1.92653 -5.46158 -0.0170233 -2.28085 -6.46879 -0.884126 -2.61951 
-7.65823 -1.85272 -2.80076 -3.14406 0.860166 -1.78145 -4.10171 -0.1202 -2.06406 
-5.14543 -1.02774 -2.46492 -6.20901 -1.84653 -2.74863 -7.64933 -2.91486 -2.84653 
-2.19365 0.544951 -1.5248 -2.98938 -0.394829 -1.79511 -4.0212 -1.3829 -2.17232 
-4.9958 -2.20433 -2.58204 -6.25093 -3.06 -2.77193 -7.90713 -4.16467 -2.84744 
-1.58062 0.0434394 -1.08943 -2.22106 -0.814311 -1.45679 -3.16314 -1.77438 -1.82869 
-4.10154 -2.68171 -2.31343 -5.20069 -3.4535 -2.66251 -6.69545 -4.37568 -2.82346 
-8.38382 -5.34501 -2.89454 -1.15636 -0.570734 -0.556162 -1.69022 -1.35851 -1.01475 
-2.53706 -2.20634 -1.42174 -3.4463 -3.10569 -1.91729 -4.45455 -3.89171 -2.37385 
-5.79125 -4.68669 -2.67383 -7.33493 -5.58439 -2.86252 -9.01146 -6.27913 -2.87327 
-1.11245 -2.35743 0.0772674 -1.6356 -3.53589 0.177506 -1.70167 -3.16088 -0.457925 
-2.37057 -4.70135 0.28368 -2.2894 -4.41929 -0.438506 -2.53618 -3.98223 -1.01966 
-3.24076 -5.73461 0.452387 -3.01309 -5.60536 -0.350318 -3.1456 -5.26069 -1.07542 
-3.48062 -4.77162 -1.55801 -4.44429 -6.54426 0.5922 -4.00134 -6.57558 -0.120965 
[...]
POINT_DATA 1002
FIELD FieldData 4
_paraPhi 1 1002 double
6.2831853072 3.1415926536 6.2831853072 3.1415926536 4.7123889804 4.7123889804 1.5707963268 1.5707963268 3.6951670125 
5.7296109483 2.5880182947 0.5535743589 6.2831853072 6.2831853072 6.2831853072 6.2831853072 3.1415926536 3.1415926536 
3.1415926536 3.1415926536 3.1415926536 6.1053039672 5.898798347 5.6768734901 5.4599499503 5.2659633393 5.1032165617 
4.9713148346 4.8656852733 4.7809517865 0.17788134 0.38438696014 0.60631181711 0.82323535693 1.0172219679 1.1799687454 
1.3118704726 1.4175000338 1.5022335207 6.1892828907 6.1070320098 6.035312792 5.9728339911 5.9183214791 5.8706119594 
5.8286879411 5.7916808611 5.7588591896 0.093902416448 0.17615329733 0.2478725152 0.31035131605 0.36486382811 0.41257334776 
0.45449736604 0.4915044461 0.52432611754 3.3194739936 3.5259796137 3.7479044707 3.9648280105 4.1588146215 4.321561399 
4.4534631262 4.5590926874 4.6438261743 2.9637113136 2.7572056934 2.5352808365 2.3183572967 2.1243706857 1.9616239082 
1.829722181 1.7240926197 1.6393591329 3.23549507 3.3177459509 3.3894651688 3.4519439696 3.5064564817 3.5541660013 
3.5960900196 3.6330970997 3.6659187711 3.0476902371 2.9654393563 2.8937201384 2.8312413375 2.7767288255 2.7290193058 
2.6870952876 2.6500882075 2.617266536 6.2831853072 6.2831853072 6.2831853072 6.2831853072 3.1415926536 3.1415926536 
3.1415926536 3.1415926536 3.1415926536 6.1053039672 5.898798347 5.6768734901 5.4599499503 5.2659633393 5.1032165617 
4.9713148346 4.8656852733 4.7809517865 0.17788134 0.38438696014 0.60631181711 0.82323535693 1.0172219679 1.1799687454 
1.3118704726 1.4175000338 1.5022335207 6.1892828907 6.1070320098 6.035312792 5.9728339911 5.9183214791 5.8706119594 
5.8286879411 5.7916808611 5.7588591896 0.093902416448 0.17615329733 0.2478725152 0.31035131605 0.36486382811 0.41257334776 
0.45449736604 0.4915044461 0.52432611754 3.3194739936 3.5259796137 3.7479044707 3.9648280105 4.1588146215 4.321561399 
4.4534631262 4.5590926874 4.6438261743 2.9637113136 2.7572056934 2.5352808365 2.3183572967 2.1243706857 1.9616239082 
1.829722181 1.7240926197 1.6393591329 3.23549507 3.3177459509 3.3894651688 3.4519439696 3.5064564817 3.5541660013 
3.5960900196 3.6330970997 3.6659187711 3.0476902371 2.9654393563 2.8937201384 2.8312413375 2.7767288255 2.7290193058 
2.6870952876 2.6500882075 2.617266536 4.7123889804 4.7123889804 4.7123889804 4.7123889804 4.7123889804 4.7123889804 
4.7123889804 4.7123889804 4.7123889804 4.6087898617 4.4991390697 4.3857031936 4.2712800401 4.1588146215 4.0509635631 
3.94975894 3.8564636551 3.7716124825 4.8159880991 4.9256388911 5.0390747672 5.1534979207 5.2659633393 5.3738143976 
5.4750190208 5.5683143056 5.6531654782 4.6087898617 4.4991390697 4.3857031936 4.2712800401 4.1588146215 4.0509635631 
3.94975894 3.8564636551 3.7716124825 4.8159880991 4.9256388911 5.0390747672 5.1534979207 5.2659633393 5.3738143976 
5.4750190208 5.5683143056 5.6531654782 1.5707963268 1.5707963268 1.5707963268 1.5707963268 1.5707963268 1.5707963268 
1.5707963268 1.5707963268 1.5707963268 1.6743954455 1.7840462375 1.8974821136 2.0119052671 2.1243706857 2.232221744 
2.3334263672 2.426721652 2.5115728246 1.4671972081 1.3575464161 1.24411054 1.1296873865 1.0172219679 0.90937090954 
0.80816628637 0.71487100155 0.63001982895 1.6743954455 1.7840462375 1.8974821136 2.0119052671 2.1243706857 2.232221744 
2.3334263672 2.426721652 2.5115728246 1.4671972081 1.3575464161 1.24411054 1.1296873865 1.0172219679 0.90937090954 
0.80816628637 0.71487100155 0.63001982895 3.6007720849 3.4966939854 3.3839471039 3.2645756454 3.1415926536 3.0186096618 
2.8992382033 2.7864913217 2.6824132222 5.8240058758 5.9280839753 6.0408308569 6.1602023154 6.2831853072 0.12298299178 
0.2423544503 0.35510133185 0.45917943135 6.0560271438 5.7885595667 5.9702140275 5.5125918794 5.6029703303 5.7885595667 
5.2659633393 5.2659633393 5.2659633393 5.2659633393 5.0674903122 5.0120975802 4.9155579264 4.7123889804 4.1588146215 
4.9155579264 4.8353719722 4.7123889804 4.5092200343 4.1588146215 3.6362183941 4.8004512023 4.7123889804 4.5894059886 
4.4126803806 4.1588146215 3.8218076305 3.4545639333 4.7123889804 4.6243267584 4.5092200343 4.3572876485 4.1588146215 
3.9121860814 3.6362183941 3.368750817 6.0174235957 5.9434319871 5.8263323547 5.8809213739 5.7674481418 5.6279784266 
5.8278025282 5.718968232 5.5891129425 5.4372443565 5.7823484065 5.678536687 5.5575666702 5.4192596322 5.2659633393 
5.743164462 5.6444075337 5.5314983644 5.4046708639 5.2659633393 5.1195510325 5.7091357773 5.6152775188 5.5096229709 
5.3926039573 5.2659633393 5.1329233157 4.9978930058 5.6793730533 5.5901633916 5.4910209005 5.3824597928 5.2659633393 
5.1440684722 5.0201624502 4.8979782167 5.5683143056 5.4750190208 5.4750190208 5.3738143976 5.3738143976 5.3738143976 
5.2659633393 5.2659633393 5.2659633393 5.2659633393 5.1534979207 5.1534979207 5.1534979207 5.1534979207 5.1534979207 
5.0390747672 5.0390747672 5.0390747672 5.0390747672 5.0390747672 5.0390747672 4.9256388911 4.9256388911 4.9256388911 
4.9256388911 4.9256388911 4.9256388911 4.9256388911 4.8159880991 4.8159880991 4.8159880991 4.8159880991 4.8159880991 
4.8159880991 4.8159880991 4.8159880991 4.6087898617 4.6087898617 4.4991390697 4.6087898617 4.4991390697 4.3857031936 
4.6087898617 4.4991390697 4.3857031936 4.2712800401 4.6087898617 4.4991390697 4.3857031936 4.2712800401 4.1588146215 
4.6087898617 4.4991390697 4.3857031936 4.2712800401 4.1588146215 4.0509635631 4.6087898617 4.4991390697 4.3857031936 
4.2712800401 4.1588146215 4.0509635631 3.94975894 4.6087898617 4.4991390697 4.3857031936 4.2712800401 4.1588146215 
4.0509635631 3.94975894 3.8564636551 4.526799744 4.4046155105 4.426884955 4.2807094886 4.2918546451 4.3052269283 
4.1588146215 4.1588146215 4.1588146215 4.1588146215 4.042318168 4.0321740035 4.0201070968 4.0055183285 3.9875336042 
3.9337570603 3.9151549899 3.8932795963 3.8672112905 3.8356650183 3.7967995342 3.8346145692 3.809500442 3.7803704271 
3.7462412737 3.7058097288 3.657329819 3.5984456061 3.7454049075 3.7156421835 3.6816134988 3.6424295543 3.5969754326 
3.5438565869 3.4813459737 3.4073543651 3.5642842451 3.4524645613 3.5233842518 3.3320300872 3.403123212 3.4773852225 
3.20576226 3.2746326772 3.348015857 3.4255060145 3.0774230472 3.1415926536 3.2112816139 3.2864685043 3.3668817272 
2.95115522 3.00855263 3.0719036933 3.1415926536 3.2178377658 3.3005964304 2.8307207459 2.8800620952 2.9351694502 
2.9967168029 3.0653475414 3.1415926536 3.225752376 2.718901062 2.7598010554 2.8058000847 2.8576792927 2.91630358 
2.9825888767 3.0574329311 3.1415926536 3.5642842451 3.5233842518 3.4524645613 3.4773852225 3.403123212 3.3320300872 
3.4255060145 3.348015857 3.2746326772 3.20576226 3.3668817272 3.2864685043 3.2112816139 3.1415926536 3.0774230472 
3.3005964304 3.2178377658 3.1415926536 3.0719036933 3.00855263 2.95115522 3.225752376 3.1415926536 3.0653475414 
2.9967168029 2.9351694502 2.8800620952 2.8307207459 3.1415926536 3.0574329311 2.9825888767 2.91630358 2.8576792927 
2.8058000847 2.7598010554 2.718901062 4.526799744 4.426884955 4.4046155105 4.3052269283 4.2918546451 4.2807094886 
4.1588146215 4.1588146215 4.1588146215 4.1588146215 3.9875336042 4.0055183285 4.0201070968 4.0321740035 4.042318168 
3.7967995342 3.8356650183 3.8672112905 3.8932795963 3.9151549899 3.9337570603 3.5984456061 3.657329819 3.7058097288 
3.7462412737 3.7803704271 3.809500442 3.8346145692 3.4073543651 3.4813459737 3.5438565869 3.5969754326 3.6424295543 
3.6816134988 3.7156421835 3.7454049075 4.7123889804 4.8004512023 4.6243267584 4.9155579264 4.7123889804 4.5092200343 
5.0674903122 4.8353719722 4.5894059886 4.3572876485 5.2659633393 5.0120975802 4.7123889804 4.4126803806 4.1588146215 
5.5125918794 5.2659633393 4.9155579264 4.5092200343 4.1588146215 3.9121860814 5.7885595667 5.6029703303 5.2659633393 
4.7123889804 4.1588146215 3.8218076305 3.6362183941 6.0560271438 5.9702140275 5.7885595667 5.2659633393 4.1588146215 
3.6362183941 3.4545639333 3.368750817 0.22715816343 0.49462574053 0.3129712797 0.77059342779 0.68021497688 0.49462574053 
1.0172219679 1.0172219679 1.0172219679 1.0172219679 1.2156949949 1.271087727 1.3676273807 1.5707963268 2.1243706857 
1.3676273807 1.447813335 1.5707963268 1.7739652728 2.1243706857 2.6469669131 1.4827341049 1.5707963268 1.6937793186 
1.8705049266 2.1243706857 2.4613776767 2.8286213739 1.5707963268 1.6588585487 1.7739652728 1.9258976586 2.1243706857 
2.3709992258 2.6469669131 2.9144344902 1.7563855631 1.8785697967 1.8563003522 2.0024758186 1.9913306621 1.9779583789 
2.1243706857 2.1243706857 2.1243706857 2.1243706857 2.2408671392 2.2510113037 2.2630782103 2.2776669786 2.295651703 
2.3494282469 2.3680303173 2.3899057108 2.4159740166 2.4475202889 2.486385773 2.448570738 2.4736848652 2.5028148801 
2.5369440334 2.5773755784 2.6258554882 2.6847397011 2.5377803997 2.5675431237 2.6015718084 2.6407557529 2.6862098746 
2.7393287203 2.8018393335 2.8758309421 1.6743954455 1.6743954455 1.7840462375 1.6743954455 1.7840462375 1.8974821136 
1.6743954455 1.7840462375 1.8974821136 2.0119052671 1.6743954455 1.7840462375 1.8974821136 2.0119052671 2.1243706857 
1.6743954455 1.7840462375 1.8974821136 2.0119052671 2.1243706857 2.232221744 1.6743954455 1.7840462375 1.8974821136 
2.0119052671 2.1243706857 2.232221744 2.3334263672 1.6743954455 1.7840462375 1.8974821136 2.0119052671 2.1243706857 
2.232221744 2.3334263672 2.426721652 1.4671972081 1.3575464161 1.4671972081 1.24411054 1.3575464161 1.4671972081 
1.1296873865 1.24411054 1.3575464161 1.4671972081 1.0172219679 1.1296873865 1.24411054 1.3575464161 1.4671972081 
0.90937090954 1.0172219679 1.1296873865 1.24411054 1.3575464161 1.4671972081 0.80816628637 0.90937090954 1.0172219679 
1.1296873865 1.24411054 1.3575464161 1.4671972081 0.71487100155 0.80816628637 0.90937090954 1.0172219679 1.1296873865 
1.24411054 1.3575464161 1.4671972081 0.60381225391 0.57404952988 0.69302191562 0.54002084522 0.66790778838 0.79216440667 
0.50083690068 0.63877777351 0.77356233629 0.90072551443 0.45538277901 0.60464862014 0.75168694275 0.89058134991 1.0172219679 
0.40226393329 0.56421707518 0.72561863695 0.87851444325 1.0172219679 1.139116835 0.33975332011 0.51573716537 0.69407236469 
0.86392567495 1.0172219679 1.1502619915 1.2630228569 0.26576171152 0.45685295248 0.6552068806 0.84594095064 1.0172219679 
1.1636342747 1.2852923014 1.3852070904 0.22715816343 0.3129712797 0.49462574053 0.49462574053 0.68021497688 0.77059342779 
1.0172219679 1.0172219679 1.0172219679 1.0172219679 2.1243706857 1.5707963268 1.3676273807 1.271087727 1.2156949949 
2.6469669131 2.1243706857 1.7739652728 1.5707963268 1.447813335 1.3676273807 2.8286213739 2.4613776767 2.1243706857 
1.8705049266 1.6937793186 1.5707963268 1.4827341049 2.9144344902 2.6469669131 2.3709992258 2.1243706857 1.9258976586 
1.7739652728 1.6588585487 1.5707963268 1.7563855631 1.8563003522 1.8785697967 1.9779583789 1.9913306621 2.0024758186 
2.1243706857 2.1243706857 2.1243706857 2.1243706857 2.295651703 2.2776669786 2.2630782103 2.2510113037 2.2408671392 
2.486385773 2.4475202889 2.4159740166 2.3899057108 2.3680303173 2.3494282469 2.6847397011 2.6258554882 2.5773755784 
2.5369440334 2.5028148801 2.4736848652 2.448570738 2.8758309421 2.8018393335 2.7393287203 2.6862098746 2.6407557529 
2.6015718084 2.5675431237 2.5377803997 5.8604937156 5.901393709 5.9723133995 5.9473927383 6.0216547488 6.0927478736 
5.9992719463 6.0767621038 6.1501452836 6.2190157008 6.0578962336 6.1383094565 6.2134963469 0 0.064169606361 
6.1241815303 6.206940195 6.2831853072 0.069688960264 0.13304002361 0.19043743361 6.1990255847 0 0.07624511221 
0.14487585072 0.20642320337 0.26153055843 0.3108719077 0 0.084159722458 0.15900377685 0.22528907359 0.28391336087 
0.3357925689 0.38179159818 0.42269159155 5.8604937156 5.9723133995 5.901393709 6.0927478736 6.0216547488 5.9473927383 
6.2190157008 6.1501452836 6.0767621038 5.9992719463 0.064169606361 0 6.2134963469 6.1383094565 6.0578962336 
0.19043743361 0.13304002361 0.069688960264 6.2831853072 6.206940195 6.1241815303 0.3108719077 0.26153055843 0.20642320337 
0.14487585072 0.07624511221 6.2831853072 6.1990255847 0.42269159155 0.38179159818 0.3357925689 0.28391336087 0.22528907359 
0.15900377685 0.084159722458 0 5.6793730533 5.7091357773 5.5901633916 5.743164462 5.6152775188 5.4910209005 
5.7823484065 5.6444075337 5.5096229709 5.3824597928 5.8278025282 5.678536687 5.5314983644 5.3926039573 5.2659633393 
5.8809213739 5.718968232 5.5575666702 5.4046708639 5.2659633393 5.1440684722 5.9434319871 5.7674481418 5.5891129425 
5.4192596322 5.2659633393 5.1329233157 5.0201624502 6.0174235957 5.8263323547 5.6279784266 5.4372443565 5.2659633393 
5.1195510325 4.9978930058 4.8979782167 1.3852070904 1.2852923014 1.2630228569 1.1636342747 1.1502619915 1.139116835 
1.0172219679 1.0172219679 1.0172219679 1.0172219679 0.84594095064 0.86392567495 0.87851444325 0.89058134991 0.90072551443 
0.6552068806 0.69407236469 0.72561863695 0.75168694275 0.77356233629 0.79216440667 0.45685295248 0.51573716537 0.56421707518 
0.60464862014 0.63877777351 0.66790778838 0.69302191562 0.26576171152 0.33975332011 0.40226393329 0.45538277901 0.50083690068 
0.54002084522 0.57404952988 0.60381225391 
_paraPhiHalf 1 1002 double
0 3.1415926536 0 3.1415926536 1.5707963268 1.5707963268 1.5707963268 1.5707963268 2.5880182947 
0.5535743589 2.5880182947 0.5535743589 0 0 0 0 3.1415926536 3.1415926536 
3.1415926536 3.1415926536 3.1415926536 0.17788134 0.38438696014 0.60631181711 0.82323535693 1.0172219679 1.1799687454 
1.3118704726 1.4175000338 1.5022335207 0.17788134 0.38438696014 0.60631181711 0.82323535693 1.0172219679 1.1799687454 
1.3118704726 1.4175000338 1.5022335207 0.093902416448 0.17615329733 0.2478725152 0.31035131605 0.36486382811 0.41257334776 
0.45449736604 0.4915044461 0.52432611754 0.093902416448 0.17615329733 0.2478725152 0.31035131605 0.36486382811 0.41257334776 
0.45449736604 0.4915044461 0.52432611754 2.9637113136 2.7572056934 2.5352808365 2.3183572967 2.1243706857 1.9616239082 
1.829722181 1.7240926197 1.6393591329 2.9637113136 2.7572056934 2.5352808365 2.3183572967 2.1243706857 1.9616239082 
1.829722181 1.7240926197 1.6393591329 3.0476902371 2.9654393563 2.8937201384 2.8312413375 2.7767288255 2.7290193058 
2.6870952876 2.6500882075 2.617266536 3.0476902371 2.9654393563 2.8937201384 2.8312413375 2.7767288255 2.7290193058 
2.6870952876 2.6500882075 2.617266536 0 0 0 0 3.1415926536 3.1415926536 
3.1415926536 3.1415926536 3.1415926536 0.17788134 0.38438696014 0.60631181711 0.82323535693 1.0172219679 1.1799687454 
1.3118704726 1.4175000338 1.5022335207 0.17788134 0.38438696014 0.60631181711 0.82323535693 1.0172219679 1.1799687454 
1.3118704726 1.4175000338 1.5022335207 0.093902416448 0.17615329733 0.2478725152 0.31035131605 0.36486382811 0.41257334776 
0.45449736604 0.4915044461 0.52432611754 0.093902416448 0.17615329733 0.2478725152 0.31035131605 0.36486382811 0.41257334776 
0.45449736604 0.4915044461 0.52432611754 2.9637113136 2.7572056934 2.5352808365 2.3183572967 2.1243706857 1.9616239082 
1.829722181 1.7240926197 1.6393591329 2.9637113136 2.7572056934 2.5352808365 2.3183572967 2.1243706857 1.9616239082 
1.829722181 1.7240926197 1.6393591329 3.0476902371 2.9654393563 2.8937201384 2.8312413375 2.7767288255 2.7290193058 
2.6870952876 2.6500882075 2.617266536 3.0476902371 2.9654393563 2.8937201384 2.8312413375 2.7767288255 2.7290193058 
2.6870952876 2.6500882075 2.617266536 1.5707963268 1.5707963268 1.5707963268 1.5707963268 1.5707963268 1.5707963268 
1.5707963268 1.5707963268 1.5707963268 1.6743954455 1.7840462375 1.8974821136 2.0119052671 2.1243706857 2.232221744 
2.3334263672 2.426721652 2.5115728246 1.4671972081 1.3575464161 1.24411054 1.1296873865 1.0172219679 0.90937090954 
0.80816628637 0.71487100155 0.63001982895 1.6743954455 1.7840462375 1.8974821136 2.0119052671 2.1243706857 2.232221744 
2.3334263672 2.426721652 2.5115728246 1.4671972081 1.3575464161 1.24411054 1.1296873865 1.0172219679 0.90937090954 
0.80816628637 0.71487100155 0.63001982895 1.5707963268 1.5707963268 1.5707963268 1.5707963268 1.5707963268 1.5707963268 
1.5707963268 1.5707963268 1.5707963268 1.6743954455 1.7840462375 1.8974821136 2.0119052671 2.1243706857 2.232221744 
2.3334263672 2.426721652 2.5115728246 1.4671972081 1.3575464161 1.24411054 1.1296873865 1.0172219679 0.90937090954 
0.80816628637 0.71487100155 0.63001982895 1.6743954455 1.7840462375 1.8974821136 2.0119052671 2.1243706857 2.232221744 
2.3334263672 2.426721652 2.5115728246 1.4671972081 1.3575464161 1.24411054 1.1296873865 1.0172219679 0.90937090954 
0.80816628637 0.71487100155 0.63001982895 2.6824132222 2.7864913217 2.8992382033 3.0186096618 3.1415926536 3.0186096618 
2.8992382033 2.7864913217 2.6824132222 0.45917943135 0.35510133185 0.2423544503 0.12298299178 0 0.12298299178 
0.2423544503 0.35510133185 0.45917943135 0.22715816343 0.49462574053 0.3129712797 0.77059342779 0.68021497688 0.49462574053 
1.0172219679 1.0172219679 1.0172219679 1.0172219679 1.2156949949 1.271087727 1.3676273807 1.5707963268 2.1243706857 
1.3676273807 1.447813335 1.5707963268 1.7739652728 2.1243706857 2.6469669131 1.4827341049 1.5707963268 1.6937793186 
1.8705049266 2.1243706857 2.4613776767 2.8286213739 1.5707963268 1.6588585487 1.7739652728 1.9258976586 2.1243706857 
2.3709992258 2.6469669131 2.9144344902 0.26576171152 0.33975332011 0.45685295248 0.40226393329 0.51573716537 0.6552068806 
0.45538277901 0.56421707518 0.69407236469 0.84594095064 0.50083690068 0.60464862014 0.72561863695 0.86392567495 1.0172219679 
0.54002084522 0.63877777351 0.75168694275 0.87851444325 1.0172219679 1.1636342747 0.57404952988 0.66790778838 0.77356233629 
0.89058134991 1.0172219679 1.1502619915 1.2852923014 0.60381225391 0.69302191562 0.79216440667 0.90072551443 1.0172219679 
1.139116835 1.2630228569 1.3852070904 0.71487100155 0.80816628637 0.80816628637 0.90937090954 0.90937090954 0.90937090954 
1.0172219679 1.0172219679 1.0172219679 1.0172219679 1.1296873865 1.1296873865 1.1296873865 1.1296873865 1.1296873865 
1.24411054 1.24411054 1.24411054 1.24411054 1.24411054 1.24411054 1.3575464161 1.3575464161 1.3575464161 
1.3575464161 1.3575464161 1.3575464161 1.3575464161 1.4671972081 1.4671972081 1.4671972081 1.4671972081 1.4671972081 
1.4671972081 1.4671972081 1.4671972081 1.6743954455 1.6743954455 1.7840462375 1.6743954455 1.7840462375 1.8974821136 
1.6743954455 1.7840462375 1.8974821136 2.0119052671 1.6743954455 1.7840462375 1.8974821136 2.0119052671 2.1243706857 
1.6743954455 1.7840462375 1.8974821136 2.0119052671 2.1243706857 2.232221744 1.6743954455 1.7840462375 1.8974821136 
2.0119052671 2.1243706857 2.232221744 2.3334263672 1.6743954455 1.7840462375 1.8974821136 2.0119052671 2.1243706857 
2.232221744 2.3334263672 2.426721652 1.7563855631 1.8785697967 1.8563003522 2.0024758186 1.9913306621 1.9779583789 
2.1243706857 2.1243706857 2.1243706857 2.1243706857 2.2408671392 2.2510113037 2.2630782103 2.2776669786 2.295651703 
2.3494282469 2.3680303173 2.3899057108 2.4159740166 2.4475202889 2.486385773 2.448570738 2.4736848652 2.5028148801 
2.5369440334 2.5773755784 2.6258554882 2.6847397011 2.5377803997 2.5675431237 2.6015718084 2.6407557529 2.6862098746 
2.7393287203 2.8018393335 2.8758309421 2.718901062 2.8307207459 2.7598010554 2.95115522 2.8800620952 2.8058000847 
3.0774230472 3.00855263 2.9351694502 2.8576792927 3.0774230472 3.1415926536 3.0719036933 2.9967168029 2.91630358 
2.95115522 3.00855263 3.0719036933 3.1415926536 3.0653475414 2.9825888767 2.8307207459 2.8800620952 2.9351694502 
2.9967168029 3.0653475414 3.1415926536 3.0574329311 2.718901062 2.7598010554 2.8058000847 2.8576792927 2.91630358 
2.9825888767 3.0574329311 3.1415926536 2.718901062 2.7598010554 2.8307207459 2.8058000847 2.8800620952 2.95115522 
2.8576792927 2.9351694502 3.00855263 3.0774230472 2.91630358 2.9967168029 3.0719036933 3.1415926536 3.0774230472 
2.9825888767 3.0653475414 3.1415926536 3.0719036933 3.00855263 2.95115522 3.0574329311 3.1415926536 3.0653475414 