# vtk DataFile Version 5.1
vtk output
ASCII
DATASET POLYDATA
POINTS 100 float
-3.64498 4.33303 0.622859 -3.65136 4.32464 0.620185 -3.67078 4.29869 0.616621 
-3.70386 4.25611 0.612674 -3.75143 4.19825 0.609055 -3.81422 4.12665 0.606568 
-3.89268 4.04273 0.605981 -3.98669 3.9476 0.607911 -4.0955 3.84185 0.612731 
-4.21773 3.72557 0.620524 -4.35153 3.59844 0.631073 -4.49488 3.45987 0.643897 
-4.64584 3.30929 0.658324 -4.80293 3.14636 0.673565 -4.9653 2.97112 0.688805 
-5.13287 2.78413 0.703268 -5.30627 2.58636 0.716269 -5.48666 2.37914 0.727237 
-5.67546 2.16385 0.735719 -5.874 1.94179 0.741375 -6.08323 1.71396 0.743961 
-6.30354 1.48097 0.743324 -6.53463 1.243 0.739396 -6.77561 0.999974 0.732205 
-7.0252 0.751691 0.721878 -7.28201 0.498051 0.708646 -7.54483 0.239232 0.692833 
-7.8129 -0.0242043 0.674836 -8.08609 -0.291313 0.655072 -8.36486 -0.560883 0.633934 
-8.65019 -0.831646 0.611728 -8.94332 -1.10252 0.588633 -9.24545 -1.37286 0.564685 
-9.55748 -1.64259 0.539791 -9.87978 -1.91228 0.513788 -10.2121 -2.18304 0.486522 
-10.5537 -2.45628 0.457953 -10.9033 -2.73348 0.428242 -11.2599 -3.01585 0.397811 
-11.6224 -3.30409 0.367354 -11.9905 -3.59836 0.337773 -12.3643 -3.89828 0.31006 
-12.7449 -4.20321 0.285113 -13.1337 -4.51263 0.263535 -13.5322 -4.82655 0.245439 
-13.9416 -5.14593 0.230301 -14.3625 -5.47297 0.216893 -14.7941 -5.81115 0.203331 
-15.2342 -6.16504 0.187225 -15.6795 -6.53991 0.165935 -16.125 -6.94109 0.136896 
-16.5653 -7.37326 0.0979607 -16.9945 -7.83975 0.0477126 -17.4072 -8.34199 -0.0143049 
-17.7987 -8.87926 -0.0874818 -18.1659 -9.44862 -0.170181 -18.507 -10.0453 -0.25992 
-18.8221 -10.6632 -0.353672 -19.1124 -11.2957 -0.448245 -19.3801 -11.9366 -0.540671 
-19.6279 -12.5806 -0.628562 -19.8584 -13.2237 -0.710366 -20.0737 -13.8641 -0.785497 
-20.2747 -14.5013 -0.854319 -20.4619 -15.1364 -0.917987 -20.6344 -15.7715 -0.978193 
-20.7909 -16.4086 -1.03684 -20.9296 -17.0497 -1.09574 -21.0488 -17.6958 -1.15628 
-21.1473 -18.3468 -1.21931 -21.2242 -19.0017 -1.28498 -21.28 -19.6582 -1.35285 
-21.3156 -20.3134 -1.42197 -21.3328 -20.9639 -1.49107 -21.334 -21.6065 -1.55886 
-21.322 -22.2382 -1.62415 -21.2996 -22.8561 -1.68607 -21.2698 -23.4582 -1.74416 
-21.2352 -24.0426 -1.79831 -21.1982 -24.6076 -1.84877 -21.1611 -25.1517 -1.89597 
-21.126 -25.6731 -1.9404 -21.0949 -26.1701 -1.98242 -21.0695 -26.6408 -2.02221 
-21.0515 -27.0836 -2.05964 -21.0425 -27.4969 -2.09431 -21.0435 -27.8799 -2.12561 
-21.0554 -28.232 -2.1528 -21.0784 -28.5535 -2.17518 -21.1119 -28.845 -2.1922 
-21.1549 -29.1075 -2.20357 -21.2053 -29.3422 -2.20939 -21.2608 -29.5501 -2.21012 
-21.3182 -29.7317 -2.20661 -21.3744 -29.8871 -2.2 -21.426 -30.0161 -2.19161 
-21.4698 -30.1178 -2.18281 -21.5032 -30.1913 -2.17488 -21.5239 -30.2356 -2.16887 
-21.5308 -30.2502 -2.16548 
LINES 2 100
OFFSETS vtktypeint64
0 100 
CONNECTIVITY vtktypeint64
0 1 2 3 4 5 6 7 8 
9 10 11 12 13 14 15 16 17 
18 19 20 21 22 23 24 25 26 
27 28 29 30 31 32 33 34 35 
36 37 38 39 40 41 42 43 44 
45 46 47 48 49 50 51 52 53 
54 55 56 57 58 59 60 61 62 
63 64 65 66 67 68 69 70 71 
72 73 74 75 76 77 78 79 80 
81 82 83 84 85 86 87 88 89 
90 91 92 93 94 95 96 97 98 
99 
POINT_DATA 100
FIELD FieldData 3
_theta 1 100 double
0 0.031733259127 0.063466518254 0.095199777382 0.12693303651 0.15866629564 0.19039955476 0.22213281389 0.25386607302 
0.28559933214 0.31733259127 0.3490658504 0.38079910953 0.41253236865 0.44426562778 0.47599888691 0.50773214603 0.53946540516 
0.57119866429 0.60293192342 0.63466518254 0.66639844167 0.6981317008 0.72986495992 0.76159821905 0.79333147818 0.82506473731 
0.85679799643 0.88853125556 0.92026451469 0.95199777382 0.98373103294 1.0154642921 1.0471975512 1.0789308103 1.1106640695 
1.1423973286 1.1741305877 1.2058638468 1.237597106 1.2693303651 1.3010636242 1.3327968833 1.3645301425 1.3962634016 
1.4279966607 1.4597299198 1.491463179 1.5231964381 1.5549296972 1.5866629564 1.6183962155 1.6501294746 1.6818627337 
1.7135959929 1.745329252 1.7770625111 1.8087957702 1.8405290294 1.8722622885 1.9039955476 1.9357288068 1.9674620659 
1.999195325 2.0309285841 2.0626618433 2.0943951024 2.1261283615 2.1578616206 2.1895948798 2.2213281389 2.253061398 
2.2847946572 2.3165279163 2.3482611754 2.3799944345 2.4117276937 2.4434609528 2.4751942119 2.506927471 2.5386607302 
2.5703939893 2.6021272484 2.6338605076 2.6655937667 2.6973270258 2.7290602849 2.7607935441 2.7925268032 2.8242600623 
2.8559933214 2.8877265806 2.9194598397 2.9511930988 2.982926358 3.0146596171 3.0463928762 3.0781261353 3.1098593945 
3.1415926536 
_radius 1 100 double
5.1979309349e-15 0.28077510118 0.56081958091 0.83941932067 1.1158673812 1.3894022421 1.65912536 1.9239449535 2.1825891274 
2.4337036695 2.6760115445 2.9084802753 3.130434663 3.3415704821 3.5418621606 3.7313972293 3.9101955668 4.0780737792 
4.2345971276 4.3791330474 4.5109920826 4.6296210908 4.7348024353 4.8268111397 4.9064883502 4.9752033328 5.034697357 
5.0868293465 5.1332697306 5.1752070263 5.213133431 5.2467586819 5.2750708574 5.2965287969 5.3093429994 5.3117855832 
5.302466456 5.2805216499 5.2456794785 5.198198147 5.1386996938 5.0679523236 4.9866684309 4.8953832148 4.7944577932 
4.6842160904 4.5651862856 4.438386486 4.3055792775 4.169424589 4.0334824669 3.9020486272 3.7798340007 3.6715155586 
3.5811929425 3.5118050017 3.4646127477 3.4389152054 3.4321487716 3.440383992 3.4590677586 3.4837919975 3.5109112253 
3.5379085509 3.5634792915 3.5873606847 3.6099853002 3.632063965 3.6542013738 3.6766169779 3.6990009803 3.7204987906 
3.7397981973 3.7552910847 3.765285009 3.7682364394 3.7629625274 3.7487713791 3.7254498753 3.693076818 3.6516859627 
3.600868484 3.5394470534 3.4653487329 3.3757475291 3.2674622362 3.1375172924 2.9837322969 2.8052068104 2.6025998395 
2.378150632 2.1354363464 1.878907648 1.6132841744 1.3429244734 1.0712990925 0.80067668499 0.53207474663 0.26544502068 
4.1836188657e-14 
_area 1 100 double
0 0.23205872998 0.92277724071 2.0558368857 3.604396577 5.532163483 7.7956589108 10.347786768 13.142223822 
16.137650342 19.300666106 22.606451013 26.036809733 29.576088157 33.206259846 36.902787152 40.63242225 44.353215379 
48.016235783 51.568286629 54.955183135 58.125617257 61.035815275 63.654848747 65.969690749 67.988332744 69.739013385 
71.264299863 72.610526442 73.815389015 74.898005606 75.855130504 76.664449004 77.292685282 77.704506658 77.868624863 
77.75981576 77.358481097 76.650535919 75.628913873 74.29565427 72.662307319 70.74732597 68.572391536 66.161563493 
63.543849513 60.75590072 57.842730352 54.857316407 51.86026208 48.919534828 46.110281964 43.515376786 41.225674551 
39.332898507 37.905376843 36.958686383 36.453248987 36.315460903 36.457865191 36.792710702 37.240185361 37.732089758 
38.213185049 38.64229222 38.993243059 39.254615446 39.427469238 39.521143505 39.548161357 39.519876492 39.443869323 
39.322542854 39.151535666 38.91771052 38.598811894 38.167974266 37.603519187 36.898085048 36.058302743 35.094295501 
34.007801479 32.785398681 31.397410231 29.802735429 27.960008758 25.842643402 23.452359064 20.825983846 18.033501537 
15.169009862 12.338241276 9.646000416 7.1854878364 5.0306438328 3.2326185588 1.821084064 0.80958111733 0.20236880114 
4.2632564146e-14 
