# vtk DataFile Version 5.1
vtk output
ASCII
DATASET POLYDATA
POINTS 1002 float
-10.1172 0.800125 -2.37336 -25.2803 -15.1724 -4.87257 -9.1259 -2.15574 4.12016 
-24.3976 -16.0653 0.101105 -13.345 -6.67641 -2.85633 -14.3943 -7.92145 0.37553 
-21.438 -2.58301 -0.92214 -21.4687 -3.42394 3.18821 -23.2645 -27.9658 -6.10307 
-0.351158 -1.17812 -0.0773631 -29.3776 -21.1306 -3.60613 -9.9647 6.47139 2.60549 
-11.1956 0.0224544 -2.43296 -12.4781 -0.843712 -2.52889 -13.9903 -1.80299 -2.63364 
-15.861 -2.99034 -2.71997 -18.0896 -4.6081 -2.87804 -20.3099 -6.67627 -3.20815 
-22.137 -8.97306 -3.64583 -23.5161 -11.249 -4.07508 -24.5431 -13.3424 -4.47575 
-9.94272 0.270187 -2.6523 -9.81783 -0.359188 -2.92178 -9.75921 -1.12987 -3.13962 
-9.83268 -2.04522 -3.33072 -10.0764 -2.9986 -3.54029 -10.4397 -3.91959 -3.70122 
-10.8779 -4.82114 -3.67912 -11.459 -5.60476 -3.45087 -12.288 -6.18284 -3.13242 
-10.982 0.815814 -2.13948 -11.9962 0.773915 -1.94486 -13.1723 0.652679 -1.78156 
-14.4739 0.435835 -1.61662 -15.8217 0.10476 -1.46542 -17.1185 -0.363118 -1.31454 
-18.3283 -0.914793 -1.14646 -19.4728 -1.4656 -1.02631 -20.527 -2.01462 -0.973917 
-8.97371 1.19893 -2.48068 -7.72957 1.50899 -2.50562 -6.39219 1.6701 -2.4035 
-5.00643 1.65594 -2.24406 -3.68851 1.48877 -2.07449 -2.58743 1.20214 -1.82684 
-1.7226 0.774123 -1.46404 -1.02748 0.182353 -1.02873 -0.542101 -0.505226 -0.558138 
-9.69126 1.56942 -2.1612 -9.37821 2.36436 -1.8915 -9.13053 3.17361 -1.53949 
-8.90597 3.96491 -1.0882 -8.77015 4.67736 -0.549739 -8.81112 5.30176 -0.020199 
-9.04446 5.83416 0.473816 -9.40076 6.21603 1.07678 -9.74039 6.42115 1.84001 
-24.7122 -14.949 -4.87579 -24.0185 -14.5264 -4.81998 -23.2595 -13.8915 -4.6906 
-22.4061 -13.0446 -4.46235 -21.3786 -11.9657 -4.13004 -20.1865 -10.6389 -3.69953 
-18.7651 -9.17077 -3.23623 -16.9998 -7.86197 -2.91328 -15.0721 -7.01435 -2.82176 
-25.3388 -14.1764 -4.57427 -25.2639 -13.0103 -4.2337 -25.0615 -11.6757 -3.8457 
-24.7381 -10.1822 -3.43515 -24.2815 -8.61848 -3.02866 -23.7355 -7.12336 -2.59609 
-23.1568 -5.76863 -2.13387 -22.5527 -4.56088 -1.69722 -21.9604 -3.49813 -1.30249 
-25.5294 -16.8412 -5.32984 -25.661 -18.607 -5.83392 -25.647 -20.4317 -6.32935 
-25.4526 -22.2825 -6.79057 -25.1471 -24.0621 -7.17468 -24.7964 -25.632 -7.41274 
-24.3097 -26.9236 -7.4651 -23.7333 -27.8398 -7.26937 -23.3433 -28.2037 -6.78386 
-25.9269 -16.2856 -5.097 -26.5267 -17.3625 -5.31113 -27.1349 -18.4036 -5.49379 
-27.7116 -19.3327 -5.55863 -28.1598 -20.0519 -5.43969 -28.5581 -20.6059 -5.25112 
-29.011 -21.0805 -5.0741 -29.3729 -21.4086 -4.76503 -29.4754 -21.4414 -4.23632 
-10.2668 -2.79696 4.01487 -11.6658 -3.46223 3.8522 -13.4601 -4.18248 3.56999 
-15.6025 -5.14025 3.13208 -17.8037 -6.48888 2.62356 -19.8026 -8.21784 2.09089 
-21.4689 -10.2194 1.50428 -22.7452 -12.3052 0.938825 -23.6847 -14.283 0.482576 
-9.03342 -2.7132 3.81214 -9.02628 -3.34858 3.49493 -9.1454 -4.03878 3.18402 
-9.42629 -4.75198 2.83911 -9.91557 -5.41583 2.42697 -10.6228 -5.97568 1.9631 
-11.4832 -6.4746 1.49774 -12.4393 -6.95997 1.07347 -13.4397 -7.43631 0.700909 
-9.98465 -2.05442 4.34485 -11.0638 -2.03036 4.53574 -12.4011 -2.04812 4.66603 
-13.9443 -2.05688 4.68947 -15.5412 -2.08314 4.5996 -16.9985 -2.19854 4.41783 
-18.2549 -2.42246 4.12916 -19.4115 -2.72729 3.77871 -20.5086 -3.07307 3.46311 
-7.95691 -1.88645 3.99205 -6.72626 -1.67379 3.78548 -5.49638 -1.49139 3.49776 
-4.29261 -1.31044 3.16018 -3.12782 -1.14946 2.78861 -2.09916 -1.05449 2.36202 
-1.26492 -1.04439 1.8553 -0.635119 -1.08266 1.25011 -0.309239 -1.12908 0.574684 
-8.54959 -1.40912 4.31375 -7.98799 -0.526461 4.36978 -7.51429 0.569236 4.28871 
-7.24217 1.87332 4.20152 -7.23216 3.21868 4.09915 -7.45131 4.44068 3.89244 
-7.89027 5.46407 3.6863 -8.55105 6.17653 3.49988 -9.30524 6.48979 3.15038 
-23.8583 -15.6763 0.0742443 -23.2179 -15.1316 0.0902922 -22.4899 -14.4057 0.124778 
-21.6627 -13.465 0.163471 -20.662 -12.3743 0.280071 -19.51 -11.2419 0.45626 
-18.3193 -10.131 0.549417 -17.0882 -9.1447 0.531092 -15.7655 -8.4008 0.465244 
-24.4936 -15.2358 0.372749 -24.5636 -14.1931 0.647525 -24.574 -12.9645 0.937528 
-24.4586 -11.5979 1.26294 -24.1582 -10.1288 1.61757 -23.6629 -8.59021 1.98186 
-23.0685 -7.05659 2.34052 -22.5067 -5.6564 2.6741 -21.9918 -4.46076 2.9625 
-24.6886 -17.6079 -0.338878 -24.8836 -19.2471 -0.86727 -24.9275 -20.9271 -1.42215 
-24.8208 -22.5612 -1.97857 -24.6308 -24.0667 -2.61214 -24.4087 -25.3747 -3.31 
-24.1334 -26.4722 -3.98216 -23.7888 -27.3595 -4.67701 -23.4587 -27.9089 -5.43088 
-25.1017 -17.3063 -0.124563 -25.8134 -18.5027 -0.423708 -26.5044 -19.5538 -0.792028 
-27.156 -20.4119 -1.1697 -27.7353 -21.0402 -1.56225 -28.2004 -21.3917 -2.0188 
-28.5859 -21.5402 -2.48367 -28.9426 -21.6131 -2.89091 -29.2271 -21.5383 -3.2634 
-13.1599 -6.95001 -2.70411 -13.1228 -7.2709 -2.45249 -13.1766 -7.55747 -2.13384 
-13.2229 -7.79321 -1.82246 -13.2121 -8.03074 -1.49429 -13.2349 -8.19851 -1.07452 
-13.4174 -8.1995 -0.610062 -13.7375 -8.10324 -0.20646 -14.0842 -8.00666 0.110606 
-15.6093 -7.65419 -2.7266 -17.8698 -9.61821 -2.95578 -19.6349 -12.3828 -3.44539 
-20.9179 -15.3098 -3.93787 -21.9233 -18.0978 -4.41802 -22.5842 -20.7689 -4.97124 
-22.9227 -23.1992 -5.5191 -23.1025 -25.2575 -5.95193 -23.1858 -26.875 -6.16976 
-11.1909 -6.45091 -3.07007 -9.36472 -6.36342 -3.16363 -7.79641 -6.00706 -2.98832 
-6.28533 -5.41372 -2.63195 -4.89503 -4.76211 -2.21671 -3.71089 -4.03896 -1.79184 
-2.62928 -3.30215 -1.40165 -1.62514 -2.61829 -1.01923 -0.823985 -1.91346 -0.575729 
-16.1405 -8.88819 0.0931117 -17.7631 -10.4364 -0.310771 -19.1436 -12.5309 -0.834442 
-20.2814 -14.9037 -1.42062 -21.2299 -17.3318 -2.04867 -22.0577 -19.8343 -2.75034 
-22.7513 -22.4022 -3.57895 -23.1657 -24.7817 -4.51524 -23.2668 -26.6753 -5.40268 
-12.3025 -7.41164 0.457291 -9.9992 -7.17725 0.598615 -7.73886 -7.04253 0.827714 
-5.73406 -6.7903 0.974959 -4.09233 -6.29682 0.894613 -2.86037 -5.54149 0.69844 
-1.96147 -4.55366 0.508411 -1.22952 -3.43037 0.308384 -0.652095 -2.287 0.101798 
-21.653 -2.41763 -0.603777 -21.8564 -2.25131 -0.227046 -22.0259 -2.0759 0.206373 
-22.1261 -1.91711 0.766915 -22.1386 -1.83969 1.44084 -22.0615 -1.89641 2.05583 
-21.9213 -2.12797 2.52031 -21.7785 -2.52817 2.86533 -21.6439 -2.99548 3.08857 
-22.6139 -3.77971 -1.08012 -23.8543 -5.15016 -1.25424 -25.0963 -6.70895 -1.51396 
-26.3125 -8.51062 -1.83241 -27.4883 -10.331 -2.09252 -28.4328 -12.0204 -2.32359 
-28.9436 -14.0762 -2.65793 -29.1557 -16.7296 -3.06937 -29.2991 -19.2956 -3.41196 
-20.4013 -1.39546 -0.545361 -19.2641 -0.262924 -0.0948306 -18.0235 0.815713 0.347222 
-16.7647 1.91819 0.727968 -15.5469 3.04047 1.11917 -14.3139 4.04198 1.49941 
-13.105 4.84952 1.76785 -12.0298 5.52997 2.00455 -11.0237 6.1015 2.30767 
-22.6594 -4.47773 2.73545 -23.8027 -5.81448 2.11136 -25.0219 -7.51287 1.39198 
-26.4189 -9.43256 0.80046 -27.7352 -11.325 0.357951 -28.6199 -13.1936 -0.189672 
-29.0125 -15.2469 -0.9874 -29.1246 -17.4693 -1.92553 -29.2224 -19.5285 -2.83051 
-20.3325 -2.17237 3.55205 -19.2022 -0.81889 3.92695 -18.176 0.52317 4.23827 
-17.0455 1.74817 4.37496 -15.6832 2.90476 4.32745 -14.2942 4.00646 4.14789 
-12.9985 4.9498 3.87563 -11.8189 5.68338 3.53718 -10.8249 6.19432 3.11703 
-23.4951 -28.9286 -6.2569 -24.1814 -29.4973 -6.27883 -25.3579 -29.5849 -6.27006 
-26.5697 -29.1825 -6.20392 -27.3698 -28.3684 -5.95526 -27.9123 -27.1709 -5.51878 
-28.5275 -25.6666 -5.01015 -29.1094 -24.1399 -4.52919 -29.3914 -22.7035 -4.08279 
-0.259603 0.0106191 0.15494 -0.553589 1.26155 0.412704 -1.18457 2.43864 0.669913 
-2.03532 3.53013 0.92313 -2.99874 4.58567 1.18113 -4.07402 5.47941 1.43315 
-5.41646 6.0828 1.70449 -7.03153 6.45057 2.03519 -8.62807 6.5962 2.36712 
-11.1346 -0.545541 -2.74406 -11.112 -1.20387 -3.04966 -12.506 -1.43534 -2.8383 
-11.1852 -2.04872 -3.26669 -12.6013 -2.15656 -3.08357 -14.1876 -2.46221 -2.86351 
-11.4598 -3.03642 -3.4181 -12.8946 -3.11276 -3.18733 -14.5594 -3.34541 -2.96178 
-16.3967 -3.87032 -2.8653 -11.9315 -3.94334 -3.55685 -13.4698 -4.09581 -3.2434 
-15.1982 -4.4414 -2.97243 -17.134 -5.05025 -2.9248 -18.9114 -5.85399 -3.05639 
-12.5065 -4.73941 -3.56782 -14.2481 -4.90674 -3.28817 -16.0531 -5.46697 -3.04559 
-17.9771 -6.35833 -3.04787 -19.7478 -7.34387 -3.25962 -21.1051 -8.23176 -3.48963 
-13.1899 -5.52895 -3.34566 -15.1293 -5.76563 -3.19206 -17.0054 -6.49641 -3.13587 
-18.7998 -7.64292 -3.28327 -20.433 -8.86173 -3.57522 -21.7172 -9.87676 -3.83384 
-22.7008 -10.6533 -3.98753 -14.0568 -6.28162 -3.03036 -16.0706 -6.79449 -2.99992 
-17.9495 -7.78497 -3.16459 -19.5588 -9.08615 -3.50348 -20.9617 -10.3931 -3.89512 
-22.1171 -11.4817 -4.20303 -23.0457 -12.3115 -4.36796 -23.8542 -12.9228 -4.44283 
-8.68154 0.600568 -2.73426 -7.32862 0.803429 -2.70195 -8.45981 -0.157061 -2.92377 
-5.95667 0.843034 -2.56183 -7.05177 -0.107933 -2.82942 -8.35786 -1.06975 -3.08624 
-4.6148 0.730827 -2.3654 -5.71816 -0.19593 -2.67986 -6.95968 -1.15427 -2.99326 
-8.42573 -2.0501 -3.29836 -3.37774 0.462452 -2.10468 -4.46712 -0.398083 -2.45306 
-5.70752 -1.36302 -2.85192 -7.06663 -2.19425 -3.19496 -8.67364 -3.03482 -3.5086 
-2.36984 0.00816974 -1.77992 -3.34018 -0.778073 -2.13798 -4.58522 -1.6946 -2.59226 
-5.92182 -2.51179 -2.97467 -7.41034 -3.23948 -3.29031 -9.07428 -4.09115 -3.60475 
-1.61928 -0.603406 -1.42506 -2.48541 -1.35467 -1.79674 -3.63713 -2.18334 -2.23933 
-4.96063 -2.98934 -2.64684 -6.41566 -3.65472 -2.95258 -7.97063 -4.41378 -3.30064 
-9.58707 -5.15313 -3.557 -1.09729 -1.27315 -1.02874 -1.93919 -2.00487 -1.43468 
-2.9945 -2.75734 -1.83805 -4.19785 -3.54192 -2.24911 -5.57322 -4.21719 -2.60021 
-7.09644 -4.8811 -2.95084 -8.61564 -5.55906 -3.2906 -10.2582 -5.95998 -3.36714 
-1.28619 -3.04795 -0.413217 -1.95581 -4.20338 -0.228636 -2.23175 -3.73851 -0.864428 
-2.72852 -5.32693 -0.0490841 -2.96193 -4.88314 -0.705334 -3.31849 -4.43224 -1.26394 
-3.72428 -6.30923 0.183406 -3.80029 -6.03005 -0.554464 -4.10373 -5.61068 -1.18297 
-4.43602 -5.20607 -1.74084 -5.14247 -7.00802 0.431665 -4.92918 -7.02787 -0.318591 
-5.0525 -6.78831 -1.10551 -5.29582 -6.41141 -1.77949 -5.68817 -5.95617 -2.28477 
[...]
POINT_DATA 1002
FIELD FieldData 4
_paraPhi 1 1002 double
6.2831853072 3.1415926536 6.2831853072 3.1415926536 4.7123889804 4.7123889804 1.5707963268 1.5707963268 3.6951670125 
5.7296109483 2.5880182947 0.5535743589 6.2831853072 6.2831853072 6.2831853072 6.2831853072 3.1415926536 3.1415926536 
3.1415926536 3.1415926536 3.1415926536 6.1053039672 5.898798347 5.6768734901 5.4599499503 5.2659633393 5.1032165617 
4.9713148346 4.8656852733 4.7809517865 0.17788134 0.38438696014 0.60631181711 0.82323535693 1.0172219679 1.1799687454 
1.3118704726 1.4175000338 1.5022335207 6.1892828907 6.1070320098 6.035312792 5.9728339911 5.9183214791 5.8706119594 
5.8286879411 5.7916808611 5.7588591896 0.093902416448 0.17615329733 0.2478725152 0.31035131605 0.36486382811 0.41257334776 
0.45449736604 0.4915044461 0.52432611754 3.3194739936 3.5259796137 3.7479044707 3.9648280105 4.1588146215 4.321561399 
4.4534631262 4.5590926874 4.6438261743 2.9637113136 2.7572056934 2.5352808365 2.3183572967 2.1243706857 1.9616239082 
1.829722181 1.7240926197 1.6393591329 3.23549507 3.3177459509 3.3894651688 3.4519439696 3.5064564817 3.5541660013 
3.5960900196 3.6330970997 3.6659187711 3.0476902371 2.9654393563 2.8937201384 2.8312413375 2.7767288255 2.7290193058 
2.6870952876 2.6500882075 2.617266536 6.2831853072 6.2831853072 6.2831853072 6.2831853072 3.1415926536 3.1415926536 
3.1415926536 3.1415926536 3.1415926536 6.1053039672 5.898798347 5.6768734901 5.4599499503 5.2659633393 5.1032165617 
4.9713148346 4.8656852733 4.7809517865 0.17788134 0.38438696014 0.60631181711 0.82323535693 1.0172219679 1.1799687454 
1.3118704726 1.4175000338 1.5022335207 6.1892828907 6.1070320098 6.035312792 5.9728339911 5.9183214791 5.8706119594 
5.8286879411 5.7916808611 5.7588591896 0.093902416448 0.17615329733 0.2478725152 0.31035131605 0.36486382811 0.41257334776 
0.45449736604 0.4915044461 0.52432611754 3.3194739936 3.5259796137 3.7479044707 3.9648280105 4.1588146215 4.321561399 
4.4534631262 4.5590926874 4.6438261743 2.9637113136 2.7572056934 2.5352808365 2.3183572967 2.1243706857 1.9616239082 
1.829722181 1.7240926197 1.6393591329 3.23549507 3.3177459509 3.3894651688 3.4519439696 3.5064564817 3.5541660013 
3.5960900196 3.6330970997 3.6659187711 3.0476902371 2.9654393563 2.8937201384 2.8312413375 2.7767288255 2.7290193058 
2.6870952876 2.6500882075 2.617266536 4.7123889804 4.7123889804 4.7123889804 4.7123889804 4.7123889804 4.7123889804 
4.7123889804 4.7123889804 4.7123889804 4.6087898617 4.4991390697 4.3857031936 4.2712800401 4.1588146215 4.0509635631 
3.94975894 3.8564636551 3.7716124825 4.8159880991 4.9256388911 5.0390747672 5.1534979207 5.2659633393 5.3738143976 
5.4750190208 5.5683143056 5.6531654782 4.6087898617 4.4991390697 4.3857031936 4.2712800401 4.1588146215 4.0509635631 
3.94975894 3.8564636551 3.7716124825 4.8159880991 4.9256388911 5.0390747672 5.1534979207 5.2659633393 5.3738143976 
5.4750190208 5.5683143056 5.6531654782 1.5707963268 1.5707963268 1.5707963268 1.5707963268 1.5707963268 1.5707963268 
1.5707963268 1.5707963268 1.5707963268 1.6743954455 1.7840462375 1.8974821136 2.0119052671 2.1243706857 2.232221744 
2.3334263672 2.426721652 2.5115728246 1.4671972081 1.3575464161 1.24411054 1.1296873865 1.0172219679 0.90937090954 
0.80816628637 0.71487100155 0.63001982895 1.6743954455 1.7840462375 1.8974821136 2.0119052671 2.1243706857 2.232221744 
2.3334263672 2.426721652 2.5115728246 1.4671972081 1.3575464161 1.24411054 1.1296873865 1.0172219679 0.90937090954 
0.80816628637 0.71487100155 0.63001982895 3.6007720849 3.4966939854 3.3839471039 3.2645756454 3.1415926536 3.0186096618 
2.8992382033 2.7864913217 2.6824132222 5.8240058758 5.9280839753 6.0408308569 6.1602023154 6.2831853072 0.12298299178 
0.2423544503 0.35510133185 0.45917943135 6.0560271438 5.7885595667 5.9702140275 5.5125918794 5.6029703303 5.7885595667 
5.2659633393 5.2659633393 5.2659633393 5.2659633393 5.0674903122 5.0120975802 4.9155579264 4.7123889804 4.1588146215 
4.9155579264 4.8353719722 4.7123889804 4.5092200343 4.1588146215 3.6362183941 4.8004512023 4.7123889804 4.5894059886 
4.4126803806 4.1588146215 3.8218076305 3.4545639333 4.7123889804 4.6243267584 4.5092200343 4.3572876485 4.1588146215 
3.9121860814 3.6362183941 3.368750817 6.0174235957 5.9434319871 5.8263323547 5.8809213739 5.7674481418 5.6279784266 
5.8278025282 5.718968232 5.5891129425 5.4372443565 5.7823484065 5.678536687 5.5575666702 5.4192596322 5.2659633393 
5.743164462 5.6444075337 5.5314983644 5.4046708639 5.2659633393 5.1195510325 5.7091357773 5.6152775188 5.5096229709 
5.3926039573 5.2659633393 5.1329233157 4.9978930058 5.6793730533 5.5901633916 5.4910209005 5.3824597928 5.2659633393 
5.1440684722 5.0201624502 4.8979782167 5.5683143056 5.4750190208 5.4750190208 5.3738143976 5.3738143976 5.3738143976 
5.2659633393 5.2659633393 5.2659633393 5.2659633393 5.1534979207 5.1534979207 5.1534979207 5.1534979207 5.1534979207 
5.0390747672 5.0390747672 5.0390747672 5.0390747672 5.0390747672 5.0390747672 4.9256388911 4.9256388911 4.9256388911 
4.9256388911 4.9256388911 4.9256388911 4.9256388911 4.8159880991 4.8159880991 4.8159880991 4.8159880991 4.8159880991 
4.8159880991 4.8159880991 4.8159880991 4.6087898617 4.6087898617 4.4991390697 4.6087898617 4.4991390697 4.3857031936 
4.6087898617 4.4991390697 4.3857031936 4.2712800401 4.6087898617 4.4991390697 4.3857031936 4.2712800401 4.1588146215 
4.6087898617 4.4991390697 4.3857031936 4.2712800401 4.1588146215 4.0509635631 4.6087898617 4.4991390697 4.3857031936 
4.2712800401 4.1588146215 4.0509635631 3.94975894 4.6087898617 4.4991390697 4.3857031936 4.2712800401 4.1588146215 
4.0509635631 3.94975894 3.8564636551 4.526799744 4.4046155105 4.426884955 4.2807094886 4.2918546451 4.3052269283 
4.1588146215 4.1588146215 4.1588146215 4.1588146215 4.042318168 4.0321740035 4.0201070968 4.0055183285 3.9875336042 
3.9337570603 3.9151549899 3.8932795963 3.8672112905 3.8356650183 3.7967995342 3.8346145692 3.809500442 3.7803704271 
3.7462412737 3.7058097288 3.657329819 3.5984456061 3.7454049075 3.7156421835 3.6816134988 3.6424295543 3.5969754326 
3.5438565869 3.4813459737 3.4073543651 3.5642842451 3.4524645613 3.5233842518 3.3320300872 3.403123212 3.4773852225 
3.20576226 3.2746326772 3.348015857 3.4255060145 3.0774230472 3.1415926536 3.2112816139 3.2864685043 3.3668817272 
2.95115522 3.00855263 3.0719036933 3.1415926536 3.2178377658 3.3005964304 2.8307207459 2.8800620952 2.9351694502 
2.9967168029 3.0653475414 3.1415926536 3.225752376 2.718901062 2.7598010554 2.8058000847 2.8576792927 2.91630358 
2.9825888767 3.0574329311 3.1415926536 3.5642842451 3.5233842518 3.4524645613 3.4773852225 3.403123212 3.3320300872 
3.4255060145 3.348015857 3.2746326772 3.20576226 3.3668817272 3.2864685043 3.2112816139 3.1415926536 3.0774230472 
3.3005964304 3.2178377658 3.1415926536 3.0719036933 3.00855263 2.95115522 3.225752376 3.1415926536 3.0653475414 
2.9967168029 2.9351694502 2.8800620952 2.8307207459 3.1415926536 3.0574329311 2.9825888767 2.91630358 2.8576792927 
2.8058000847 2.7598010554 2.718901062 4.526799744 4.426884955 4.4046155105 4.3052269283 4.2918546451 4.2807094886 
4.1588146215 4.1588146215 4.1588146215 4.1588146215 3.9875336042 4.0055183285 4.0201070968 4.0321740035 4.042318168 
3.7967995342 3.8356650183 3.8672112905 3.8932795963 3.9151549899 3.9337570603 3.5984456061 3.657329819 3.7058097288 
3.7462412737 3.7803704271 3.809500442 3.8346145692 3.4073543651 3.4813459737 3.5438565869 3.5969754326 3.6424295543 
3.6816134988 3.7156421835 3.7454049075 4.7123889804 4.8004512023 4.6243267584 4.9155579264 4.7123889804 4.5092200343 
5.0674903122 4.8353719722 4.5894059886 4.3572876485 5.2659633393 5.0120975802 4.7123889804 4.4126803806 4.1588146215 
5.5125918794 5.2659633393 4.9155579264 4.5092200343 4.1588146215 3.9121860814 5.7885595667 5.6029703303 5.2659633393 
4.7123889804 4.1588146215 3.8218076305 3.6362183941 6.0560271438 5.9702140275 5.7885595667 5.2659633393 4.1588146215 
3.6362183941 3.4545639333 3.368750817 0.22715816343 0.49462574053 0.3129712797 0.77059342779 0.68021497688 0.49462574053 
1.0172219679 1.0172219679 1.0172219679 1.0172219679 1.2156949949 1.271087727 1.3676273807 1.5707963268 2.1243706857 
1.3676273807 1.447813335 1.5707963268 1.7739652728 2.1243706857 2.6469669131 1.4827341049 1.5707963268 1.6937793186 
1.8705049266 2.1243706857 2.4613776767 2.8286213739 1.5707963268 1.6588585487 1.7739652728 1.9258976586 2.1243706857 
2.3709992258 2.6469669131 2.9144344902 1.7563855631 1.8785697967 1.8563003522 2.0024758186 1.9913306621 1.9779583789 
2.1243706857 2.1243706857 2.1243706857 2.1243706857 2.2408671392 2.2510113037 2.2630782103 2.2776669786 2.295651703 
2.3494282469 2.3680303173 2.3899057108 2.4159740166 2.4475202889 2.486385773 2.448570738 2.4736848652 2.5028148801 
2.5369440334 2.5773755784 2.6258554882 2.6847397011 2.5377803997 2.5675431237 2.6015718084 2.6407557529 2.6862098746 
2.7393287203 2.8018393335 2.8758309421 1.6743954455 1.6743954455 1.7840462375 1.6743954455 1.7840462375 1.8974821136 
1.6743954455 1.7840462375 1.8974821136 2.0119052671 1.6743954455 1.7840462375 1.8974821136 2.0119052671 2.1243706857 
1.6743954455 1.7840462375 1.8974821136 2.0119052671 2.1243706857 2.232221744 1.6743954455 1.7840462375 1.8974821136 
2.0119052671 2.1243706857 2.232221744 2.3334263672 1.6743954455 1.7840462375 1.8974821136 2.0119052671 2.1243706857 
2.232221744 2.3334263672 2.426721652 1.4671972081 1.3575464161 1.4671972081 1.24411054 1.3575464161 1.4671972081 
1.1296873865 1.24411054 1.3575464161 1.4671972081 1.0172219679 1.1296873865 1.24411054 1.3575464161 1.4671972081 
0.90937090954 1.0172219679 1.1296873865 1.24411054 1.3575464161 1.4671972081 0.80816628637 0.90937090954 1.0172219679 
1.1296873865 1.24411054 1.3575464161 1.4671972081 0.71487100155 0.80816628637 0.90937090954 1.0172219679 1.1296873865 
1.24411054 1.3575464161 1.4671972081 0.60381225391 0.57404952988 0.69302191562 0.54002084522 0.66790778838 0.79216440667 
0.50083690068 0.63877777351 0.77356233629 0.90072551443 0.45538277901 0.60464862014 0.75168694275 0.89058134991 1.0172219679 
0.40226393329 0.56421707518 0.72561863695 0.87851444325 1.0172219679 1.139116835 0.33975332011 0.51573716537 0.69407236469 
0.86392567495 1.0172219679 1.1502619915 1.2630228569 0.26576171152 0.45685295248 0.6552068806 0.84594095064 1.0172219679 
1.1636342747 1.2852923014 1.3852070904 0.22715816343 0.3129712797 0.49462574053 0.49462574053 0.68021497688 0.77059342779 
1.0172219679 1.0172219679 1.0172219679 1.0172219679 2.1243706857 1.5707963268 1.3676273807 1.271087727 1.2156949949 
2.6469669131 2.1243706857 1.7739652728 1.5707963268 1.447813335 1.3676273807 2.8286213739 2.4613776767 2.1243706857 
1.8705049266 1.6937793186 1.5707963268 1.4827341049 2.9144344902 2.6469669131 2.3709992258 2.1243706857 1.9258976586 
1.7739652728 1.6588585487 1.5707963268 1.7563855631 1.8563003522 1.8785697967 1.9779583789 1.9913306621 2.0024758186 
2.1243706857 2.1243706857 2.1243706857 2.1243706857 2.295651703 2.2776669786 2.2630782103 2.2510113037 2.2408671392 
2.486385773 2.4475202889 2.4159740166 2.3899057108 2.3680303173 2.3494282469 2.6847397011 2.6258554882 2.5773755784 
2.5369440334 2.5028148801 2.4736848652 2.448570738 2.8758309421 2.8018393335 2.7393287203 2.6862098746 2.6407557529 
2.6015718084 2.5675431237 2.5377803997 5.8604937156 5.901393709 5.9723133995 5.9473927383 6.0216547488 6.0927478736 
5.9992719463 6.0767621038 6.1501452836 6.2190157008 6.0578962336 6.1383094565 6.2134963469 0 0.064169606361 
6.1241815303 6.206940195 6.2831853072 0.069688960264 0.13304002361 0.19043743361 6.1990255847 0 0.07624511221 
0.14487585072 0.20642320337 0.26153055843 0.3108719077 0 0.084159722458 0.15900377685 0.22528907359 0.28391336087 
0.3357925689 0.38179159818 0.42269159155 5.8604937156 5.9723133995 5.901393709 6.0927478736 6.0216547488 5.9473927383 
6.2190157008 6.1501452836 6.0767621038 5.9992719463 0.064169606361 0 6.2134963469 6.1383094565 6.0578962336 
0.19043743361 0.13304002361 0.069688960264 6.2831853072 6.206940195 6.1241815303 0.3108719077 0.26153055843 0.20642320337 
0.14487585072 0.07624511221 6.2831853072 6.1990255847 0.42269159155 0.38179159818 0.3357925689 0.28391336087 0.22528907359 
0.15900377685 0.084159722458 0 5.6793730533 5.7091357773 5.5901633916 5.743164462 5.6152775188 5.4910209005 
5.7823484065 5.6444075337 5.5096229709 5.3824597928 5.8278025282 5.678536687 5.5314983644 5.3926039573 5.2659633393 
5.8809213739 5.718968232 5.5575666702 5.4046708639 5.2659633393 5.1440684722 5.9434319871 5.7674481418 5.5891129425 
5.4192596322 5.2659633393 5.1329233157 5.0201624502 6.0174235957 5.8263323547 5.6279784266 5.4372443565 5.2659633393 
5.1195510325 4.9978930058 4.8979782167 1.3852070904 1.2852923014 1.2630228569 1.1636342747 1.1502619915 1.139116835 
1.0172219679 1.0172219679 1.0172219679 1.0172219679 0.84594095064 0.86392567495 0.87851444325 0.89058134991 0.90072551443 
0.6552068806 0.69407236469 0.72561863695 0.75168694275 0.77356233629 0.79216440667 0.45685295248 0.51573716537 0.56421707518 
0.60464862014 0.63877777351 0.66790778838 0.69302191562 0.26576171152 0.33975332011 0.40226393329 0.45538277901 0.50083690068 
0.54002084522 0.57404952988 0.60381225391 
_paraPhiHalf 1 1002 double
0 3.1415926536 0 3.1415926536 1.5707963268 1.5707963268 1.5707963268 1.5707963268 2.5880182947 
0.5535743589 2.5880182947 0.5535743589 0 0 0 0 3.1415926536 3.1415926536 
3.1415926536 3.1415926536 3.1415926536 0.17788134 0.38438696014 0.60631181711 0.82323535693 1.0172219679 1.1799687454 
1.3118704726 1.4175000338 1.5022335207 0.17788134 0.38438696014 0.60631181711 0.82323535693 1.0172219679 1.1799687454 
1.3118704726 1.4175000338 1.5022335207 0.093902416448 0.17615329733 0.2478725152 0.31035131605 0.36486382811 0.41257334776 
0.45449736604 0.4915044461 0.52432611754 0.093902416448 0.17615329733 0.2478725152 0.31035131605 0.36486382811 0.41257334776 
0.45449736604 0.4915044461 0.52432611754 2.9637113136 2.7572056934 2.5352808365 2.3183572967 2.1243706857 1.9616239082 
1.829722181 1.7240926197 1.6393591329 2.9637113136 2.7572056934 2.5352808365 2.3183572967 2.1243706857 1.9616239082 
1.829722181 1.7240926197 1.6393591329 3.0476902371 2.9654393563 2.8937201384 2.8312413375 2.7767288255 2.7290193058 
2.6870952876 2.6500882075 2.617266536 3.0476902371 2.9654393563 2.8937201384 2.8312413375 2.7767288255 2.7290193058 
2.6870952876 2.6500882075 2.617266536 0 0 0 0 3.1415926536 3.1415926536 
3.1415926536 3.1415926536 3.1415926536 0.17788134 0.38438696014 0.60631181711 0.82323535693 1.0172219679 1.1799687454 
1.3118704726 1.4175000338 1.5022335207 0.17788134 0.38438696014 0.60631181711 0.82323535693 1.0172219679 1.1799687454 
1.3118704726 1.4175000338 1.5022335207 0.093902416448 0.17615329733 0.2478725152 0.31035131605 0.36486382811 0.41257334776 
0.45449736604 0.4915044461 0.52432611754 0.093902416448 0.17615329733 0.2478725152 0.31035131605 0.36486382811 0.41257334776 
0.45449736604 0.4915044461 0.52432611754 2.9637113136 2.7572056934 2.5352808365 2.3183572967 2.1243706857 1.9616239082 
1.829722181 1.7240926197 1.6393591329 2.9637113136 2.7572056934 2.5352808365 2.3183572967 2.1243706857 1.9616239082 
1.829722181 1.7240926197 1.6393591329 3.0476902371 2.9654393563 2.8937201384 2.8312413375 2.7767288255 2.7290193058 
2.6870952876 2.6500882075 2.617266536 3.0476902371 2.9654393563 2.8937201384 2.8312413375 2.7767288255 2.7290193058 
2.6870952876 2.6500882075 2.617266536 1.5707963268 1.5707963268 1.5707963268 1.5707963268 1.5707963268 1.5707963268 
1.5707963268 1.5707963268 1.5707963268 1.6743954455 1.7840462375 1.8974821136 2.0119052671 2.1243706857 2.232221744 
2.3334263672 2.426721652 2.5115728246 1.4671972081 1.3575464161 1.24411054 1.1296873865 1.0172219679 0.90937090954 
0.80816628637 0.71487100155 0.63001982895 1.6743954455 1.7840462375 1.8974821136 2.0119052671 2.1243706857 2.232221744 
2.3334263672 2.426721652 2.5115728246 1.4671972081 1.3575464161 1.24411054 1.1296873865 1.0172219679 0.90937090954 
0.80816628637 0.71487100155 0.63001982895 1.5707963268 1.5707963268 1.5707963268 1.5707963268 1.5707963268 1.5707963268 
1.5707963268 1.5707963268 1.5707963268 1.6743954455 1.7840462375 1.8974821136 2.0119052671 2.1243706857 2.232221744 
2.3334263672 2.426721652 2.5115728246 1.4671972081 1.3575464161 1.24411054 1.1296873865 1.0172219679 0.90937090954 
0.80816628637 0.71487100155 0.63001982895 1.6743954455 1.7840462375 1.8974821136 2.0119052671 2.1243706857 2.232221744 
2.3334263672 2.426721652 2.5115728246 1.4671972081 1.3575464161 1.24411054 1.1296873865 1.0172219679 0.90937090954 
0.80816628637 0.71487100155 0.63001982895 2.6824132222 2.7864913217 2.8992382033 3.0186096618 3.1415926536 3.0186096618 
2.8992382033 2.7864913217 2.6824132222 0.45917943135 0.35510133185 0.2423544503 0.12298299178 0 0.12298299178 
0.2423544503 0.35510133185 0.45917943135 0.22715816343 0.49462574053 0.3129712797 0.77059342779 0.68021497688 0.49462574053 
1.0172219679 1.0172219679 1.0172219679 1.0172219679 1.2156949949 1.271087727 1.3676273807 1.5707963268 2.1243706857 
1.3676273807 1.447813335 1.5707963268 1.7739652728 2.1243706857 2.6469669131 1.4827341049 1.5707963268 1.6937793186 
1.8705049266 2.1243706857 2.4613776767 2.8286213739 1.5707963268 1.6588585487 1.7739652728 1.9258976586 2.1243706857 
2.3709992258 2.6469669131 2.9144344902 0.26576171152 0.33975332011 0.45685295248 0.40226393329 0.51573716537 0.6552068806 
0.45538277901 0.56421707518 0.69407236469 0.84594095064 0.50083690068 0.60464862014 0.72561863695 0.86392567495 1.0172219679 
0.54002084522 0.63877777351 0.75168694275 0.87851444325 1.0172219679 1.1636342747 0.57404952988 0.66790778838 0.77356233629 
0.89058134991 1.0172219679 1.1502619915 1.2852923014 0.60381225391 0.69302191562 0.79216440667 0.90072551443 1.0172219679 
1.139116835 1.2630228569 1.3852070904 0.71487100155 0.80816628637 0.80816628637 0.90937090954 0.90937090954 0.90937090954 
1.0172219679 1.0172219679 1.0172219679 1.0172219679 1.1296873865 1.1296873865 1.1296873865 1.1296873865 1.1296873865 
1.24411054 1.24411054 1.24411054 1.24411054 1.24411054 1.24411054 1.3575464161 1.3575464161 1.3575464161 
1.3575464161 1.3575464161 1.3575464161 1.3575464161 1.4671972081 1.4671972081 1.4671972081 1.4671972081 1.4671972081 
1.4671972081 1.4671972081 1.4671972081 1.6743954455 1.6743954455 1.7840462375 1.6743954455 1.7840462375 1.8974821136 
1.6743954455 1.7840462375 1.8974821136 2.0119052671 1.6743954455 1.7840462375 1.8974821136 2.0119052671 2.1243706857 
1.6743954455 1.7840462375 1.8974821136 2.0119052671 2.1243706857 2.232221744 1.6743954455 1.7840462375 1.8974821136 
2.0119052671 2.1243706857 2.232221744 2.3334263672 1.6743954455 1.7840462375 1.8974821136 2.0119052671 2.1243706857 
2.232221744 2.3334263672 2.426721652 1.7563855631 1.8785697967 1.8563003522 2.0024758186 1.9913306621 1.9779583789 
2.1243706857 2.1243706857 2.1243706857 2.1243706857 2.2408671392 2.2510113037 2.2630782103 2.2776669786 2.295651703 
2.3494282469 2.3680303173 2.3899057108 2.4159740166 2.4475202889 2.486385773 2.448570738 2.4736848652 2.5028148801 
2.5369440334 2.5773755784 2.6258554882 2.6847397011 2.5377803997 2.5675431237 2.6015718084 2.6407557529 2.6862098746 
2.7393287203 2.8018393335 2.8758309421 2.718901062 2.8307207459 2.7598010554 2.95115522 2.8800620952 2.8058000847 
3.0774230472 3.00855263 2.9351694502 2.8576792927 3.0774230472 3.1415926536 3.0719036933 2.9967168029 2.91630358 
2.95115522 3.00855263 3.0719036933 3.1415926536 3.0653475414 2.9825888767 2.8307207459 2.8800620952 2.9351694502 
2.9967168029 3.0653475414 3.1415926536 3.0574329311 2.718901062 2.7598010554 2.8058000847 2.8576792927 2.91630358 
2.9825888767 3.0574329311 3.1415926536 2.718901062 2.7598010554 2.8307207459 2.8058000847 2.8800620952 2.95115522 
2.8576792927 2.9351694502 3.00855263 3.0774230472 2.91630358 2.9967168029 3.0719036933 3.1415926536 3.0774230472 
2.9825888767 3.0653475414 3.1415926536 3.0719036933 3.00855263 2.95115522 3.0574329311 3.1415926536 3.0653475414 