# vtk DataFile Version 5.1
vtk output
ASCII
DATASET POLYDATA
POINTS 1002 float
-10.8753 0.374715 -2.21645 -24.6448 -14.2993 -4.7568 -9.32562 -2.63122 3.84901 
-23.7098 -15.324 -0.254862 -13.4076 -6.61963 -3.32601 -14.2994 -7.74295 0.0885429 
-21.1802 -2.97241 -0.706968 -21.6118 -4.0346 3.00679 -22.8303 -27.1304 -5.08531 
-1.70214 -2.02201 0.117024 -28.75 -19.8417 -3.17974 -10.2524 5.26671 2.5985 
-11.8926 -0.178594 -2.44307 -13.0729 -0.927457 -2.59109 -14.377 -1.90134 -2.61679 
-15.9172 -3.06215 -2.60976 -17.8166 -4.4659 -2.76902 -19.8323 -6.23848 -3.16195 
-21.5561 -8.30767 -3.64616 -22.8717 -10.4363 -4.08526 -23.8752 -12.4583 -4.44819 
-10.6073 -0.0757998 -2.47195 -10.393 -0.651168 -2.74122 -10.2915 -1.37961 -3.00435 
-10.3155 -2.1783 -3.25649 -10.4836 -3.01142 -3.54701 -10.8298 -3.94992 -3.81708 
-11.2786 -4.86398 -3.87762 -11.7751 -5.54876 -3.7157 -12.4528 -6.07697 -3.50032 
-11.7478 0.450995 -2.09721 -12.6946 0.433407 -1.90975 -13.7578 0.299107 -1.65698 
-14.9143 0.047234 -1.41595 -16.0748 -0.306654 -1.22804 -17.2048 -0.737697 -1.04722 
-18.3024 -1.25461 -0.86956 -19.3429 -1.84743 -0.759301 -20.3088 -2.43809 -0.723308 
-9.73612 0.591657 -2.13344 -8.51742 0.79977 -2.08619 -7.23711 0.941795 -2.02711 
-5.93066 0.859718 -1.86137 -4.70622 0.549301 -1.6374 -3.69248 0.174794 -1.41456 
-2.91313 -0.248034 -1.09388 -2.31214 -0.797136 -0.658899 -1.8898 -1.4221 -0.23669 
-10.5009 0.962444 -1.88267 -10.1558 1.64525 -1.51187 -9.83076 2.38768 -1.14967 
-9.60336 3.06533 -0.741405 -9.50771 3.63518 -0.189814 -9.47495 4.15735 0.404461 
-9.53921 4.62126 0.912938 -9.75896 4.97478 1.42199 -10.034 5.1975 2.00697 
-24.1777 -14.1067 -4.82408 -23.5924 -13.7369 -4.82643 -22.8481 -13.116 -4.6957 
-21.9026 -12.2235 -4.49747 -20.8061 -11.1191 -4.27813 -19.6252 -9.83946 -3.90747 
-18.241 -8.4989 -3.44045 -16.577 -7.40792 -3.18177 -14.8684 -6.79882 -3.20908 
-24.6059 -13.2654 -4.49008 -24.5031 -12.0907 -4.19582 -24.3333 -10.8132 -3.85975 
-24.0215 -9.47648 -3.44673 -23.572 -8.15197 -2.95707 -23.0994 -6.88505 -2.45888 
-22.6284 -5.70097 -2.00014 -22.1276 -4.64858 -1.56091 -21.6321 -3.7473 -1.12438 
-25 -16.0198 -5.11795 -25.2185 -17.8145 -5.53699 -25.2498 -19.6898 -5.94851 
-25.0091 -21.7264 -6.20906 -24.5336 -23.7777 -6.33567 -24.0881 -25.452 -6.46372 
-23.7805 -26.5871 -6.45051 -23.4435 -27.2531 -6.0954 -23.0688 -27.4334 -5.5566 
-25.3126 -15.455 -4.91428 -25.9459 -16.5807 -5.09933 -26.5295 -17.6368 -5.2304 
-27.0532 -18.6133 -5.20527 -27.4628 -19.413 -5.04394 -27.7986 -19.9107 -4.84717 
-28.1725 -20.15 -4.59629 -28.5216 -20.2295 -4.20636 -28.7133 -20.1348 -3.70229 
-10.5292 -3.24215 3.74938 -11.946 -3.85421 3.56304 -13.527 -4.4788 3.28663 
-15.2999 -5.23102 2.87841 -17.2655 -6.37111 2.36728 -19.2007 -8.00167 1.80789 
-20.8254 -9.86631 1.17551 -22.0754 -11.7212 0.545249 -23.0186 -13.5453 0.0686403 
-9.4353 -3.17159 3.57308 -9.55943 -3.68424 3.2076 -9.71162 -4.27209 2.8199 
-10.0044 -4.88761 2.41436 -10.4773 -5.42718 1.9703 -11.0896 -5.95591 1.53962 
-11.8503 -6.48345 1.14492 -12.7084 -6.91356 0.754786 -13.5378 -7.29961 0.392572 
-10.0155 -2.37758 3.98035 -10.9617 -2.04626 3.97907 -12.1538 -1.7806 3.89434 
-13.5241 -1.74811 3.85038 -15.0589 -1.95938 3.84266 -16.6998 -2.34575 3.76438 
-18.2612 -2.83797 3.64622 -19.6053 -3.31242 3.53558 -20.7159 -3.69558 3.34147 
-8.31594 -2.36307 3.71053 -7.32897 -2.07641 3.46671 -6.27572 -1.84877 3.19447 
-5.14682 -1.7492 2.95367 -4.13064 -1.74206 2.66826 -3.29435 -1.75666 2.25794 
-2.50891 -1.79525 1.76138 -1.86438 -1.87331 1.22532 -1.59228 -1.95949 0.664497 
-8.63385 -1.78061 3.974 -8.05604 -0.735966 4.06349 -7.63855 0.42059 4.18925 
-7.40979 1.63112 4.2974 -7.45083 2.80578 4.26951 -7.7694 3.79001 4.1434 
-8.28557 4.52728 3.95527 -8.95087 5.03716 3.60909 -9.65844 5.28499 3.11072 
-23.2143 -14.8465 -0.314652 -22.6289 -14.2018 -0.370562 -21.903 -13.4042 -0.34802 
-21.0416 -12.4837 -0.242042 -20.0858 -11.5048 -0.103797 -19.0471 -10.5395 0.0339578 
-17.9268 -9.6022 0.140554 -16.7353 -8.75183 0.191624 -15.5014 -8.12017 0.177941 
-23.8281 -14.5769 -0.048423 -23.9414 -13.666 0.172621 -23.9743 -12.607 0.472316 
-23.871 -11.4467 0.845024 -23.6372 -10.166 1.23404 -23.2672 -8.75749 1.63394 
-22.8005 -7.3891 2.03769 -22.3639 -6.18471 2.40934 -21.994 -5.07933 2.73722 
-23.9713 -16.8991 -0.595808 -24.1533 -18.6319 -1.01644 -24.212 -20.4718 -1.46029 
-24.1133 -22.3151 -1.87947 -23.9301 -23.9622 -2.35874 -23.7576 -25.2542 -2.94715 
-23.5153 -26.2181 -3.57253 -23.1663 -26.9118 -4.17824 -22.8962 -27.2498 -4.70531 
-24.3574 -16.6708 -0.42581 -25.0197 -17.9903 -0.659478 -25.7254 -19.1093 -0.932431 
-26.4507 -19.9411 -1.19525 -27.1007 -20.5203 -1.47069 -27.6162 -20.8219 -1.80978 
-28.0345 -20.7942 -2.17672 -28.3849 -20.5571 -2.51684 -28.6324 -20.2483 -2.84556 
-13.3395 -6.95509 -3.22478 -13.397 -7.23897 -2.98943 -13.4556 -7.48685 -2.68563 
-13.4177 -7.73862 -2.34673 -13.4181 -7.85325 -1.93626 -13.5769 -7.78311 -1.48096 
-13.7592 -7.76906 -1.02464 -13.8872 -7.85547 -0.580978 -14.0569 -7.85355 -0.200403 
-15.5084 -7.52615 -3.19641 -17.6598 -9.25204 -3.32073 -19.2697 -11.7338 -3.66315 
-20.439 -14.518 -4.05798 -21.5021 -17.1752 -4.42576 -22.2077 -19.5623 -4.70817 
-22.4629 -21.7778 -4.85222 -22.608 -23.9059 -4.95597 -22.7398 -25.7751 -5.07229 
-11.5661 -6.42941 -3.52045 -10.0076 -6.38114 -3.56514 -8.58172 -6.14716 -3.35687 
-7.16345 -5.70556 -2.99067 -5.90149 -5.18147 -2.53 -4.83473 -4.58038 -1.99048 
-3.82891 -3.93237 -1.46049 -2.90553 -3.30278 -0.956582 -2.17709 -2.67161 -0.42288 
-15.8306 -8.59366 -0.166116 -17.3927 -9.9354 -0.614898 -18.761 -11.7384 -1.28619 
-19.89 -13.8422 -1.92147 -20.9129 -16.2247 -2.30789 -21.7936 -18.898 -2.75115 
-22.3599 -21.5655 -3.50713 -22.606 -23.8786 -4.25446 -22.6983 -25.7364 -4.73209 
-12.6096 -7.29974 0.104807 -10.8193 -7.07302 0.127332 -8.97509 -6.95551 0.230635 
-7.17969 -6.78232 0.371032 -5.63591 -6.40533 0.447209 -4.42267 -5.79381 0.425582 
-3.42861 -4.9899 0.32538 -2.59552 -4.04042 0.203961 -1.99849 -3.02186 0.134108 
-21.4234 -2.83339 -0.422766 -21.6478 -2.72005 -0.0966379 -21.828 -2.64032 0.283059 
-21.9866 -2.54232 0.776901 -22.0892 -2.50492 1.39025 -22.0523 -2.67032 1.96126 
-21.9488 -2.96546 2.36223 -21.8856 -3.2776 2.64596 -21.8007 -3.63239 2.86598 
-22.2839 -4.01906 -0.937601 -23.405 -5.28738 -1.17224 -24.5424 -6.78069 -1.45582 
-25.6965 -8.40501 -1.83323 -26.7906 -10.0761 -2.26505 -27.7056 -11.9498 -2.67801 
-28.339 -14.2067 -2.99802 -28.6699 -16.5486 -3.16291 -28.7776 -18.468 -3.1972 
-20.1877 -1.90994 -0.306566 -19.1208 -0.774703 0.0911555 -18.051 0.378542 0.476567 
-16.9568 1.40617 0.878956 -15.771 2.29457 1.27744 -14.5366 3.14258 1.62702 
-13.3528 3.90258 1.92896 -12.2648 4.49869 2.18008 -11.2513 4.95659 2.39065 
-22.669 -5.10656 2.39145 -23.7699 -6.46505 1.7164 -24.9442 -8.04261 1.13437 
-26.1394 -9.61952 0.624909 -27.2089 -11.192 0.0669657 -28.0074 -12.9992 -0.564659 
-28.4792 -15.0368 -1.25663 -28.6884 -16.9866 -1.97879 -28.7545 -18.5954 -2.6374 
-20.603 -2.77899 3.42713 -19.4275 -1.43463 3.71061 -18.2092 -0.0538357 3.89423 
-16.9313 1.28198 4.04189 -15.5562 2.47709 4.10961 -14.2731 3.42451 4.0166 
-13.1535 4.1195 3.76545 -12.0906 4.64941 3.41798 -11.1076 5.03948 3.02249 
-23.1362 -28.3232 -5.22388 -23.8804 -28.9919 -5.23337 -25.1198 -28.9676 -5.08025 
-26.3367 -28.3295 -4.87296 -27.0389 -27.3145 -4.69906 -27.4758 -26.0365 -4.46995 
-27.9724 -24.4941 -4.13878 -28.3986 -22.829 -3.78858 -28.6379 -21.2663 -3.4722 
-1.52114 -0.96133 0.42584 -1.63796 0.152155 0.691729 -2.11614 1.24816 0.917821 
-2.88513 2.34922 1.15709 -3.7312 3.39786 1.39823 -4.68976 4.24685 1.6247 
-6.00905 4.87801 1.89457 -7.57378 5.28704 2.19197 -9.03197 5.40472 2.43304 
-11.7573 -0.692743 -2.70842 -11.6534 -1.3632 -2.96891 -13.0657 -1.51398 -2.86874 
-11.6259 -2.15995 -3.18748 -13.0692 -2.26136 -3.09385 -14.5141 -2.54946 -2.87256 
-11.7645 -2.96745 -3.41771 -13.1926 -3.11013 -3.22678 -14.7126 -3.36723 -3.02403 
-16.2925 -3.81435 -2.83981 -12.1129 -3.80625 -3.69209 -13.5869 -3.93306 -3.39704 
-15.1367 -4.28368 -3.11161 -16.7841 -4.7888 -2.99315 -18.443 -5.46584 -3.05405 
-12.5851 -4.68294 -3.77893 -14.1901 -4.75393 -3.55005 -15.8593 -5.17831 -3.29561 
-17.4885 -5.88698 -3.18535 -19.1188 -6.73342 -3.32167 -20.5406 -7.57317 -3.54502 
-13.1375 -5.42895 -3.56207 -14.8604 -5.59541 -3.43783 -16.6778 -6.14632 -3.43131 
-18.3236 -7.04085 -3.48706 -19.8225 -8.11543 -3.6355 -21.1626 -9.11836 -3.89393 
-22.1757 -9.88499 -4.07326 -13.8859 -6.06874 -3.3062 -15.6473 -6.4484 -3.213 
-17.4614 -7.27173 -3.40629 -19.0517 -8.37485 -3.73688 -20.4181 -9.56654 -3.98296 
-21.6299 -10.6837 -4.20677 -22.6155 -11.5448 -4.42006 -23.3365 -12.105 -4.49425 
-9.35546 0.097604 -2.4284 -8.08182 0.240427 -2.41532 -9.10637 -0.549086 -2.74127 
-6.80299 0.237446 -2.31345 -7.85508 -0.537007 -2.73058 -9.0436 -1.38427 -3.02235 
-5.53381 -0.0335881 -2.07025 -6.61273 -0.727341 -2.56066 -7.82213 -1.54836 -2.95932 
-9.0974 -2.30409 -3.26018 -4.4 -0.465816 -1.82085 -5.41377 -1.1142 -2.28365 
-6.60818 -1.8745 -2.74514 -7.88191 -2.61455 -3.1246 -9.30884 -3.28201 -3.51295 
-3.51896 -0.934764 -1.5615 -4.41874 -1.58716 -2.02283 -5.53222 -2.28808 -2.50018 
-6.73972 -3.01131 -2.91912 -8.18334 -3.68644 -3.32642 -9.76152 -4.3362 -3.74236 
-2.87401 -1.47662 -1.1922 -3.69535 -2.13279 -1.69711 -4.73397 -2.79786 -2.21436 
-5.84057 -3.48391 -2.70886 -7.17932 -4.13851 -3.12429 -8.77871 -4.77336 -3.5398 
-10.2903 -5.27132 -3.81924 -2.42279 -2.08316 -0.786521 -3.20148 -2.73074 -1.30932 
-4.18853 -3.38199 -1.82947 -5.23646 -4.04743 -2.38514 -6.4116 -4.66263 -2.88347 
-7.87981 -5.2353 -3.29787 -9.39532 -5.71162 -3.63802 -10.8213 -5.94139 -3.72203 
-2.61196 -3.69684 -0.446634 -3.29511 -4.73548 -0.41335 -3.4637 -4.34629 -1.02035 
-4.11883 -5.72739 -0.29574 -4.16444 -5.41404 -1.0379 -4.44994 -5.002 -1.5676 
-5.14031 -6.5412 -0.138625 -4.99786 -6.41662 -0.920489 -5.19336 -6.05063 -1.61405 
-5.5258 -5.62868 -2.11214 -6.57615 -7.02059 -0.0653784 -6.19805 -7.14059 -0.719346 
-6.17678 -6.9743 -1.48954 -6.40604 -6.59974 -2.13871 -6.73392 -6.17216 -2.62024 
[...]
POINT_DATA 1002
FIELD FieldData 4
_paraPhi 1 1002 double
6.2831853072 3.1415926536 6.2831853072 3.1415926536 4.7123889804 4.7123889804 1.5707963268 1.5707963268 3.6951670125 
5.7296109483 2.5880182947 0.5535743589 6.2831853072 6.2831853072 6.2831853072 6.2831853072 3.1415926536 3.1415926536 
3.1415926536 3.1415926536 3.1415926536 6.1053039672 5.898798347 5.6768734901 5.4599499503 5.2659633393 5.1032165617 
4.9713148346 4.8656852733 4.7809517865 0.17788134 0.38438696014 0.60631181711 0.82323535693 1.0172219679 1.1799687454 
1.3118704726 1.4175000338 1.5022335207 6.1892828907 6.1070320098 6.035312792 5.9728339911 5.9183214791 5.8706119594 
5.8286879411 5.7916808611 5.7588591896 0.093902416448 0.17615329733 0.2478725152 0.31035131605 0.36486382811 0.41257334776 
0.45449736604 0.4915044461 0.52432611754 3.3194739936 3.5259796137 3.7479044707 3.9648280105 4.1588146215 4.321561399 
4.4534631262 4.5590926874 4.6438261743 2.9637113136 2.7572056934 2.5352808365 2.3183572967 2.1243706857 1.9616239082 
1.829722181 1.7240926197 1.6393591329 3.23549507 3.3177459509 3.3894651688 3.4519439696 3.5064564817 3.5541660013 
3.5960900196 3.6330970997 3.6659187711 3.0476902371 2.9654393563 2.8937201384 2.8312413375 2.7767288255 2.7290193058 
2.6870952876 2.6500882075 2.617266536 6.2831853072 6.2831853072 6.2831853072 6.2831853072 3.1415926536 3.1415926536 
3.1415926536 3.1415926536 3.1415926536 6.1053039672 5.898798347 5.6768734901 5.4599499503 5.2659633393 5.1032165617 
4.9713148346 4.8656852733 4.7809517865 0.17788134 0.38438696014 0.60631181711 0.82323535693 1.0172219679 1.1799687454 
1.3118704726 1.4175000338 1.5022335207 6.1892828907 6.1070320098 6.035312792 5.9728339911 5.9183214791 5.8706119594 
5.8286879411 5.7916808611 5.7588591896 0.093902416448 0.17615329733 0.2478725152 0.31035131605 0.36486382811 0.41257334776 
0.45449736604 0.4915044461 0.52432611754 3.3194739936 3.5259796137 3.7479044707 3.9648280105 4.1588146215 4.321561399 
4.4534631262 4.5590926874 4.6438261743 2.9637113136 2.7572056934 2.5352808365 2.3183572967 2.1243706857 1.9616239082 
1.829722181 1.7240926197 1.6393591329 3.23549507 3.3177459509 3.3894651688 3.4519439696 3.5064564817 3.5541660013 
3.5960900196 3.6330970997 3.6659187711 3.0476902371 2.9654393563 2.8937201384 2.8312413375 2.7767288255 2.7290193058 
2.6870952876 2.6500882075 2.617266536 4.7123889804 4.7123889804 4.7123889804 4.7123889804 4.7123889804 4.7123889804 
4.7123889804 4.7123889804 4.7123889804 4.6087898617 4.4991390697 4.3857031936 4.2712800401 4.1588146215 4.0509635631 
3.94975894 3.8564636551 3.7716124825 4.8159880991 4.9256388911 5.0390747672 5.1534979207 5.2659633393 5.3738143976 
5.4750190208 5.5683143056 5.6531654782 4.6087898617 4.4991390697 4.3857031936 4.2712800401 4.1588146215 4.0509635631 
3.94975894 3.8564636551 3.7716124825 4.8159880991 4.9256388911 5.0390747672 5.1534979207 5.2659633393 5.3738143976 
5.4750190208 5.5683143056 5.6531654782 1.5707963268 1.5707963268 1.5707963268 1.5707963268 1.5707963268 1.5707963268 
1.5707963268 1.5707963268 1.5707963268 1.6743954455 1.7840462375 1.8974821136 2.0119052671 2.1243706857 2.232221744 
2.3334263672 2.426721652 2.5115728246 1.4671972081 1.3575464161 1.24411054 1.1296873865 1.0172219679 0.90937090954 
0.80816628637 0.71487100155 0.63001982895 1.6743954455 1.7840462375 1.8974821136 2.0119052671 2.1243706857 2.232221744 
2.3334263672 2.426721652 2.5115728246 1.4671972081 1.3575464161 1.24411054 1.1296873865 1.0172219679 0.90937090954 
0.80816628637 0.71487100155 0.63001982895 3.6007720849 3.4966939854 3.3839471039 3.2645756454 3.1415926536 3.0186096618 
2.8992382033 2.7864913217 2.6824132222 5.8240058758 5.9280839753 6.0408308569 6.1602023154 6.2831853072 0.12298299178 
0.2423544503 0.35510133185 0.45917943135 6.0560271438 5.7885595667 5.9702140275 5.5125918794 5.6029703303 5.7885595667 
5.2659633393 5.2659633393 5.2659633393 5.2659633393 5.0674903122 5.0120975802 4.9155579264 4.7123889804 4.1588146215 
4.9155579264 4.8353719722 4.7123889804 4.5092200343 4.1588146215 3.6362183941 4.8004512023 4.7123889804 4.5894059886 
4.4126803806 4.1588146215 3.8218076305 3.4545639333 4.7123889804 4.6243267584 4.5092200343 4.3572876485 4.1588146215 
3.9121860814 3.6362183941 3.368750817 6.0174235957 5.9434319871 5.8263323547 5.8809213739 5.7674481418 5.6279784266 
5.8278025282 5.718968232 5.5891129425 5.4372443565 5.7823484065 5.678536687 5.5575666702 5.4192596322 5.2659633393 
5.743164462 5.6444075337 5.5314983644 5.4046708639 5.2659633393 5.1195510325 5.7091357773 5.6152775188 5.5096229709 
5.3926039573 5.2659633393 5.1329233157 4.9978930058 5.6793730533 5.5901633916 5.4910209005 5.3824597928 5.2659633393 
5.1440684722 5.0201624502 4.8979782167 5.5683143056 5.4750190208 5.4750190208 5.3738143976 5.3738143976 5.3738143976 
5.2659633393 5.2659633393 5.2659633393 5.2659633393 5.1534979207 5.1534979207 5.1534979207 5.1534979207 5.1534979207 
5.0390747672 5.0390747672 5.0390747672 5.0390747672 5.0390747672 5.0390747672 4.9256388911 4.9256388911 4.9256388911 
4.9256388911 4.9256388911 4.9256388911 4.9256388911 4.8159880991 4.8159880991 4.8159880991 4.8159880991 4.8159880991 
4.8159880991 4.8159880991 4.8159880991 4.6087898617 4.6087898617 4.4991390697 4.6087898617 4.4991390697 4.3857031936 
4.6087898617 4.4991390697 4.3857031936 4.2712800401 4.6087898617 4.4991390697 4.3857031936 4.2712800401 4.1588146215 
4.6087898617 4.4991390697 4.3857031936 4.2712800401 4.1588146215 4.0509635631 4.6087898617 4.4991390697 4.3857031936 
4.2712800401 4.1588146215 4.0509635631 3.94975894 4.6087898617 4.4991390697 4.3857031936 4.2712800401 4.1588146215 
4.0509635631 3.94975894 3.8564636551 4.526799744 4.4046155105 4.426884955 4.2807094886 4.2918546451 4.3052269283 
4.1588146215 4.1588146215 4.1588146215 4.1588146215 4.042318168 4.0321740035 4.0201070968 4.0055183285 3.9875336042 
3.9337570603 3.9151549899 3.8932795963 3.8672112905 3.8356650183 3.7967995342 3.8346145692 3.809500442 3.7803704271 
3.7462412737 3.7058097288 3.657329819 3.5984456061 3.7454049075 3.7156421835 3.6816134988 3.6424295543 3.5969754326 
3.5438565869 3.4813459737 3.4073543651 3.5642842451 3.4524645613 3.5233842518 3.3320300872 3.403123212 3.4773852225 
3.20576226 3.2746326772 3.348015857 3.4255060145 3.0774230472 3.1415926536 3.2112816139 3.2864685043 3.3668817272 
2.95115522 3.00855263 3.0719036933 3.1415926536 3.2178377658 3.3005964304 2.8307207459 2.8800620952 2.9351694502 
2.9967168029 3.0653475414 3.1415926536 3.225752376 2.718901062 2.7598010554 2.8058000847 2.8576792927 2.91630358 
2.9825888767 3.0574329311 3.1415926536 3.5642842451 3.5233842518 3.4524645613 3.4773852225 3.403123212 3.3320300872 
3.4255060145 3.348015857 3.2746326772 3.20576226 3.3668817272 3.2864685043 3.2112816139 3.1415926536 3.0774230472 
3.3005964304 3.2178377658 3.1415926536 3.0719036933 3.00855263 2.95115522 3.225752376 3.1415926536 3.0653475414 
2.9967168029 2.9351694502 2.8800620952 2.8307207459 3.1415926536 3.0574329311 2.9825888767 2.91630358 2.8576792927 
2.8058000847 2.7598010554 2.718901062 4.526799744 4.426884955 4.4046155105 4.3052269283 4.2918546451 4.2807094886 
4.1588146215 4.1588146215 4.1588146215 4.1588146215 3.9875336042 4.0055183285 4.0201070968 4.0321740035 4.042318168 
3.7967995342 3.8356650183 3.8672112905 3.8932795963 3.9151549899 3.9337570603 3.5984456061 3.657329819 3.7058097288 
3.7462412737 3.7803704271 3.809500442 3.8346145692 3.4073543651 3.4813459737 3.5438565869 3.5969754326 3.6424295543 
3.6816134988 3.7156421835 3.7454049075 4.7123889804 4.8004512023 4.6243267584 4.9155579264 4.7123889804 4.5092200343 
5.0674903122 4.8353719722 4.5894059886 4.3572876485 5.2659633393 5.0120975802 4.7123889804 4.4126803806 4.1588146215 
5.5125918794 5.2659633393 4.9155579264 4.5092200343 4.1588146215 3.9121860814 5.7885595667 5.6029703303 5.2659633393 
4.7123889804 4.1588146215 3.8218076305 3.6362183941 6.0560271438 5.9702140275 5.7885595667 5.2659633393 4.1588146215 
3.6362183941 3.4545639333 3.368750817 0.22715816343 0.49462574053 0.3129712797 0.77059342779 0.68021497688 0.49462574053 
1.0172219679 1.0172219679 1.0172219679 1.0172219679 1.2156949949 1.271087727 1.3676273807 1.5707963268 2.1243706857 
1.3676273807 1.447813335 1.5707963268 1.7739652728 2.1243706857 2.6469669131 1.4827341049 1.5707963268 1.6937793186 
1.8705049266 2.1243706857 2.4613776767 2.8286213739 1.5707963268 1.6588585487 1.7739652728 1.9258976586 2.1243706857 
2.3709992258 2.6469669131 2.9144344902 1.7563855631 1.8785697967 1.8563003522 2.0024758186 1.9913306621 1.9779583789 
2.1243706857 2.1243706857 2.1243706857 2.1243706857 2.2408671392 2.2510113037 2.2630782103 2.2776669786 2.295651703 
2.3494282469 2.3680303173 2.3899057108 2.4159740166 2.4475202889 2.486385773 2.448570738 2.4736848652 2.5028148801 
2.5369440334 2.5773755784 2.6258554882 2.6847397011 2.5377803997 2.5675431237 2.6015718084 2.6407557529 2.6862098746 
2.7393287203 2.8018393335 2.8758309421 1.6743954455 1.6743954455 1.7840462375 1.6743954455 1.7840462375 1.8974821136 
1.6743954455 1.7840462375 1.8974821136 2.0119052671 1.6743954455 1.7840462375 1.8974821136 2.0119052671 2.1243706857 
1.6743954455 1.7840462375 1.8974821136 2.0119052671 2.1243706857 2.232221744 1.6743954455 1.7840462375 1.8974821136 
2.0119052671 2.1243706857 2.232221744 2.3334263672 1.6743954455 1.7840462375 1.8974821136 2.0119052671 2.1243706857 
2.232221744 2.3334263672 2.426721652 1.4671972081 1.3575464161 1.4671972081 1.24411054 1.3575464161 1.4671972081 
1.1296873865 1.24411054 1.3575464161 1.4671972081 1.0172219679 1.1296873865 1.24411054 1.3575464161 1.4671972081 
0.90937090954 1.0172219679 1.1296873865 1.24411054 1.3575464161 1.4671972081 0.80816628637 0.90937090954 1.0172219679 
1.1296873865 1.24411054 1.3575464161 1.4671972081 0.71487100155 0.80816628637 0.90937090954 1.0172219679 1.1296873865 
1.24411054 1.3575464161 1.4671972081 0.60381225391 0.57404952988 0.69302191562 0.54002084522 0.66790778838 0.79216440667 
0.50083690068 0.63877777351 0.77356233629 0.90072551443 0.45538277901 0.60464862014 0.75168694275 0.89058134991 1.0172219679 
0.40226393329 0.56421707518 0.72561863695 0.87851444325 1.0172219679 1.139116835 0.33975332011 0.51573716537 0.69407236469 
0.86392567495 1.0172219679 1.1502619915 1.2630228569 0.26576171152 0.45685295248 0.6552068806 0.84594095064 1.0172219679 
1.1636342747 1.2852923014 1.3852070904 0.22715816343 0.3129712797 0.49462574053 0.49462574053 0.68021497688 0.77059342779 
1.0172219679 1.0172219679 1.0172219679 1.0172219679 2.1243706857 1.5707963268 1.3676273807 1.271087727 1.2156949949 
2.6469669131 2.1243706857 1.7739652728 1.5707963268 1.447813335 1.3676273807 2.8286213739 2.4613776767 2.1243706857 
1.8705049266 1.6937793186 1.5707963268 1.4827341049 2.9144344902 2.6469669131 2.3709992258 2.1243706857 1.9258976586 
1.7739652728 1.6588585487 1.5707963268 1.7563855631 1.8563003522 1.8785697967 1.9779583789 1.9913306621 2.0024758186 
2.1243706857 2.1243706857 2.1243706857 2.1243706857 2.295651703 2.2776669786 2.2630782103 2.2510113037 2.2408671392 
2.486385773 2.4475202889 2.4159740166 2.3899057108 2.3680303173 2.3494282469 2.6847397011 2.6258554882 2.5773755784 
2.5369440334 2.5028148801 2.4736848652 2.448570738 2.8758309421 2.8018393335 2.7393287203 2.6862098746 2.6407557529 
2.6015718084 2.5675431237 2.5377803997 5.8604937156 5.901393709 5.9723133995 5.9473927383 6.0216547488 6.0927478736 
5.9992719463 6.0767621038 6.1501452836 6.2190157008 6.0578962336 6.1383094565 6.2134963469 0 0.064169606361 
6.1241815303 6.206940195 6.2831853072 0.069688960264 0.13304002361 0.19043743361 6.1990255847 0 0.07624511221 
0.14487585072 0.20642320337 0.26153055843 0.3108719077 0 0.084159722458 0.15900377685 0.22528907359 0.28391336087 
0.3357925689 0.38179159818 0.42269159155 5.8604937156 5.9723133995 5.901393709 6.0927478736 6.0216547488 5.9473927383 
6.2190157008 6.1501452836 6.0767621038 5.9992719463 0.064169606361 0 6.2134963469 6.1383094565 6.0578962336 
0.19043743361 0.13304002361 0.069688960264 6.2831853072 6.206940195 6.1241815303 0.3108719077 0.26153055843 0.20642320337 
0.14487585072 0.07624511221 6.2831853072 6.1990255847 0.42269159155 0.38179159818 0.3357925689 0.28391336087 0.22528907359 
0.15900377685 0.084159722458 0 5.6793730533 5.7091357773 5.5901633916 5.743164462 5.6152775188 5.4910209005 
5.7823484065 5.6444075337 5.5096229709 5.3824597928 5.8278025282 5.678536687 5.5314983644 5.3926039573 5.2659633393 
5.8809213739 5.718968232 5.5575666702 5.4046708639 5.2659633393 5.1440684722 5.9434319871 5.7674481418 5.5891129425 
5.4192596322 5.2659633393 5.1329233157 5.0201624502 6.0174235957 5.8263323547 5.6279784266 5.4372443565 5.2659633393 
5.1195510325 4.9978930058 4.8979782167 1.3852070904 1.2852923014 1.2630228569 1.1636342747 1.1502619915 1.139116835 
1.0172219679 1.0172219679 1.0172219679 1.0172219679 0.84594095064 0.86392567495 0.87851444325 0.89058134991 0.90072551443 
0.6552068806 0.69407236469 0.72561863695 0.75168694275 0.77356233629 0.79216440667 0.45685295248 0.51573716537 0.56421707518 
0.60464862014 0.63877777351 0.66790778838 0.69302191562 0.26576171152 0.33975332011 0.40226393329 0.45538277901 0.50083690068 
0.54002084522 0.57404952988 0.60381225391 
_paraPhiHalf 1 1002 double
0 3.1415926536 0 3.1415926536 1.5707963268 1.5707963268 1.5707963268 1.5707963268 2.5880182947 
0.5535743589 2.5880182947 0.5535743589 0 0 0 0 3.1415926536 3.1415926536 
3.1415926536 3.1415926536 3.1415926536 0.17788134 0.38438696014 0.60631181711 0.82323535693 1.0172219679 1.1799687454 
1.3118704726 1.4175000338 1.5022335207 0.17788134 0.38438696014 0.60631181711 0.82323535693 1.0172219679 1.1799687454 
1.3118704726 1.4175000338 1.5022335207 0.093902416448 0.17615329733 0.2478725152 0.31035131605 0.36486382811 0.41257334776 
0.45449736604 0.4915044461 0.52432611754 0.093902416448 0.17615329733 0.2478725152 0.31035131605 0.36486382811 0.41257334776 
0.45449736604 0.4915044461 0.52432611754 2.9637113136 2.7572056934 2.5352808365 2.3183572967 2.1243706857 1.9616239082 
1.829722181 1.7240926197 1.6393591329 2.9637113136 2.7572056934 2.5352808365 2.3183572967 2.1243706857 1.9616239082 
1.829722181 1.7240926197 1.6393591329 3.0476902371 2.9654393563 2.8937201384 2.8312413375 2.7767288255 2.7290193058 
2.6870952876 2.6500882075 2.617266536 3.0476902371 2.9654393563 2.8937201384 2.8312413375 2.7767288255 2.7290193058 
2.6870952876 2.6500882075 2.617266536 0 0 0 0 3.1415926536 3.1415926536 
3.1415926536 3.1415926536 3.1415926536 0.17788134 0.38438696014 0.60631181711 0.82323535693 1.0172219679 1.1799687454 
1.3118704726 1.4175000338 1.5022335207 0.17788134 0.38438696014 0.60631181711 0.82323535693 1.0172219679 1.1799687454 
1.3118704726 1.4175000338 1.5022335207 0.093902416448 0.17615329733 0.2478725152 0.31035131605 0.36486382811 0.41257334776 
0.45449736604 0.4915044461 0.52432611754 0.093902416448 0.17615329733 0.2478725152 0.31035131605 0.36486382811 0.41257334776 
0.45449736604 0.4915044461 0.52432611754 2.9637113136 2.7572056934 2.5352808365 2.3183572967 2.1243706857 1.9616239082 
1.829722181 1.7240926197 1.6393591329 2.9637113136 2.7572056934 2.5352808365 2.3183572967 2.1243706857 1.9616239082 
1.829722181 1.7240926197 1.6393591329 3.0476902371 2.9654393563 2.8937201384 2.8312413375 2.7767288255 2.7290193058 
2.6870952876 2.6500882075 2.617266536 3.0476902371 2.9654393563 2.8937201384 2.8312413375 2.7767288255 2.7290193058 
2.6870952876 2.6500882075 2.617266536 1.5707963268 1.5707963268 1.5707963268 1.5707963268 1.5707963268 1.5707963268 
1.5707963268 1.5707963268 1.5707963268 1.6743954455 1.7840462375 1.8974821136 2.0119052671 2.1243706857 2.232221744 
2.3334263672 2.426721652 2.5115728246 1.4671972081 1.3575464161 1.24411054 1.1296873865 1.0172219679 0.90937090954 
0.80816628637 0.71487100155 0.63001982895 1.6743954455 1.7840462375 1.8974821136 2.0119052671 2.1243706857 2.232221744 
2.3334263672 2.426721652 2.5115728246 1.4671972081 1.3575464161 1.24411054 1.1296873865 1.0172219679 0.90937090954 
0.80816628637 0.71487100155 0.63001982895 1.5707963268 1.5707963268 1.5707963268 1.5707963268 1.5707963268 1.5707963268 
1.5707963268 1.5707963268 1.5707963268 1.6743954455 1.7840462375 1.8974821136 2.0119052671 2.1243706857 2.232221744 
2.3334263672 2.426721652 2.5115728246 1.4671972081 1.3575464161 1.24411054 1.1296873865 1.0172219679 0.90937090954 
0.80816628637 0.71487100155 0.63001982895 1.6743954455 1.7840462375 1.8974821136 2.0119052671 2.1243706857 2.232221744 
2.3334263672 2.426721652 2.5115728246 1.4671972081 1.3575464161 1.24411054 1.1296873865 1.0172219679 0.90937090954 
0.80816628637 0.71487100155 0.63001982895 2.6824132222 2.7864913217 2.8992382033 3.0186096618 3.1415926536 3.0186096618 
2.8992382033 2.7864913217 2.6824132222 0.45917943135 0.35510133185 0.2423544503 0.12298299178 0 0.12298299178 
0.2423544503 0.35510133185 0.45917943135 0.22715816343 0.49462574053 0.3129712797 0.77059342779 0.68021497688 0.49462574053 
1.0172219679 1.0172219679 1.0172219679 1.0172219679 1.2156949949 1.271087727 1.3676273807 1.5707963268 2.1243706857 
1.3676273807 1.447813335 1.5707963268 1.7739652728 2.1243706857 2.6469669131 1.4827341049 1.5707963268 1.6937793186 
1.8705049266 2.1243706857 2.4613776767 2.8286213739 1.5707963268 1.6588585487 1.7739652728 1.9258976586 2.1243706857 
2.3709992258 2.6469669131 2.9144344902 0.26576171152 0.33975332011 0.45685295248 0.40226393329 0.51573716537 0.6552068806 
0.45538277901 0.56421707518 0.69407236469 0.84594095064 0.50083690068 0.60464862014 0.72561863695 0.86392567495 1.0172219679 
0.54002084522 0.63877777351 0.75168694275 0.87851444325 1.0172219679 1.1636342747 0.57404952988 0.66790778838 0.77356233629 
0.89058134991 1.0172219679 1.1502619915 1.2852923014 0.60381225391 0.69302191562 0.79216440667 0.90072551443 1.0172219679 
1.139116835 1.2630228569 1.3852070904 0.71487100155 0.80816628637 0.80816628637 0.90937090954 0.90937090954 0.90937090954 
1.0172219679 1.0172219679 1.0172219679 1.0172219679 1.1296873865 1.1296873865 1.1296873865 1.1296873865 1.1296873865 
1.24411054 1.24411054 1.24411054 1.24411054 1.24411054 1.24411054 1.3575464161 1.3575464161 1.3575464161 
1.3575464161 1.3575464161 1.3575464161 1.3575464161 1.4671972081 1.4671972081 1.4671972081 1.4671972081 1.4671972081 
1.4671972081 1.4671972081 1.4671972081 1.6743954455 1.6743954455 1.7840462375 1.6743954455 1.7840462375 1.8974821136 
1.6743954455 1.7840462375 1.8974821136 2.0119052671 1.6743954455 1.7840462375 1.8974821136 2.0119052671 2.1243706857 
1.6743954455 1.7840462375 1.8974821136 2.0119052671 2.1243706857 2.232221744 1.6743954455 1.7840462375 1.8974821136 
2.0119052671 2.1243706857 2.232221744 2.3334263672 1.6743954455 1.7840462375 1.8974821136 2.0119052671 2.1243706857 
2.232221744 2.3334263672 2.426721652 1.7563855631 1.8785697967 1.8563003522 2.0024758186 1.9913306621 1.9779583789 
2.1243706857 2.1243706857 2.1243706857 2.1243706857 2.2408671392 2.2510113037 2.2630782103 2.2776669786 2.295651703 
2.3494282469 2.3680303173 2.3899057108 2.4159740166 2.4475202889 2.486385773 2.448570738 2.4736848652 2.5028148801 
2.5369440334 2.5773755784 2.6258554882 2.6847397011 2.5377803997 2.5675431237 2.6015718084 2.6407557529 2.6862098746 
2.7393287203 2.8018393335 2.8758309421 2.718901062 2.8307207459 2.7598010554 2.95115522 2.8800620952 2.8058000847 
3.0774230472 3.00855263 2.9351694502 2.8576792927 3.0774230472 3.1415926536 3.0719036933 2.9967168029 2.91630358 
2.95115522 3.00855263 3.0719036933 3.1415926536 3.0653475414 2.9825888767 2.8307207459 2.8800620952 2.9351694502 
2.9967168029 3.0653475414 3.1415926536 3.0574329311 2.718901062 2.7598010554 2.8058000847 2.8576792927 2.91630358 
2.9825888767 3.0574329311 3.1415926536 2.718901062 2.7598010554 2.8307207459 2.8058000847 2.8800620952 2.95115522 
2.8576792927 2.9351694502 3.00855263 3.0774230472 2.91630358 2.9967168029 3.0719036933 3.1415926536 3.0774230472 
2.9825888767 3.0653475414 3.1415926536 3.0719036933 3.00855263 2.95115522 3.0574329311 3.1415926536 3.0653475414 