# vtk DataFile Version 5.1
vtk output
ASCII
DATASET POLYDATA
POINTS 1002 float
-10.0648 0.213193 -3.10057 10.1682 -0.765385 -2.47608 -9.12481 0.943176 3.68081 
9.61321 -0.939781 2.14983 -2.65287 1.75453 -1.69057 -1.97762 1.3974 1.27046 
-0.864815 -6.25633 -1.81002 -1.20039 -6.64434 1.88459 17.2823 8.18712 0.291134 
-14.4074 7.59677 0.151067 16.4631 -0.750827 0.0520376 -14.4591 -3.8917 -0.156064 
-8.84733 -0.1589 -3.07001 -7.43517 -0.584621 -3.01924 -5.76191 -1.12166 -2.89423 
-3.6587 -1.82185 -2.7544 -1.08636 -2.4545 -2.71233 1.66525 -2.66347 -2.74596 
4.25482 -2.43554 -2.7544 6.54754 -1.97651 -2.69541 8.517 -1.39856 -2.58688 
-9.78699 0.681549 -3.18145 -9.40931 1.21754 -3.2185 -8.90765 1.78629 -3.15185 
-8.24992 2.27691 -3.01323 -7.44593 2.68013 -2.90854 -6.54047 3.01026 -2.83612 
-5.58702 3.09191 -2.65003 -4.63048 2.80113 -2.3068 -3.66289 2.2832 -1.94732 
-9.54627 -0.475855 -3.00236 -8.89972 -1.25189 -2.92425 -8.11738 -2.0894 -2.83071 
-7.23031 -2.87576 -2.6752 -6.25359 -3.58229 -2.47184 -5.16741 -4.27464 -2.27619 
-4.00444 -4.91433 -2.12563 -2.85797 -5.43553 -2.01613 -1.80197 -5.87266 -1.91789 
-11.065 0.879435 -3.20031 -12.0529 1.63478 -3.25903 -12.9193 2.4546 -3.15201 
-13.624 3.32383 -2.84 -14.2021 4.22668 -2.4457 -14.6144 5.11227 -2.0745 
-14.8111 5.93294 -1.65966 -14.8333 6.65929 -1.11133 -14.7014 7.23539 -0.471125 
-10.8925 0.0952493 -3.08893 -11.6676 -0.161303 -3.08785 -12.3714 -0.538571 -3.00127 
-13.0112 -0.968797 -2.75755 -13.5521 -1.45565 -2.44943 -13.9722 -2.01544 -2.16774 
-14.2931 -2.58539 -1.82937 -14.4869 -3.10973 -1.34033 -14.5278 -3.55913 -0.744526 
9.69057 -0.529862 -2.51651 9.06762 -0.327161 -2.48034 8.23502 -0.168978 -2.40364 
7.13659 -0.0823758 -2.32957 5.83286 -0.107853 -2.24086 4.31369 -0.185264 -2.14328 
2.43937 -0.113063 -2.05568 0.373319 0.258462 -1.94515 -1.41262 0.914331 -1.81054 
9.5724 -1.44178 -2.43719 8.78448 -2.15658 -2.39331 7.78645 -2.87273 -2.39823 
6.61352 -3.58955 -2.41207 5.29891 -4.28484 -2.39625 3.90252 -4.90487 -2.37101 
2.53816 -5.41494 -2.30208 1.28006 -5.79347 -2.15556 0.141942 -6.05533 -1.97739 
11.4502 0.0843586 -2.40604 12.7943 1.05787 -2.29585 14.1632 2.20357 -2.14699 
15.445 3.54645 -1.95906 16.5367 4.95198 -1.75456 17.3751 6.26201 -1.57342 
17.8409 7.40961 -1.3335 17.8789 8.22024 -0.887785 17.6339 8.47223 -0.281917 
11.352 -0.526944 -2.37853 12.5064 -0.328885 -2.30075 13.5853 -0.18103 -2.19551 
14.5624 -0.0144831 -1.98783 15.3861 0.169898 -1.68815 15.9817 0.218633 -1.37883 
16.3862 0.0634558 -1.09608 16.6553 -0.178931 -0.788973 16.7046 -0.437052 -0.39788 
-8.00022 0.473694 3.68522 -6.75136 -0.123059 3.52822 -5.27212 -0.836154 3.25775 
-3.42608 -1.57519 2.98644 -1.17453 -2.20019 2.72558 1.31711 -2.52906 2.42064 
3.7548 -2.45111 2.14162 5.95456 -2.06608 2.01334 7.90248 -1.53734 2.04425 
-8.88173 1.44904 3.5637 -8.5223 1.9281 3.42041 -8.00705 2.33844 3.30127 
-7.33746 2.63634 3.0882 -6.56102 2.79355 2.75758 -5.73701 2.79739 2.46851 
-4.87254 2.63411 2.21334 -3.94069 2.29702 1.88744 -2.95851 1.84496 1.54495 
-8.60316 0.124278 3.76001 -7.98221 -0.782424 3.75437 -7.25926 -1.77047 3.68265 
-6.40833 -2.81949 3.57876 -5.48844 -3.80446 3.40359 -4.59706 -4.59376 3.13637 
-3.72874 -5.23029 2.81939 -2.85584 -5.80179 2.48129 -2.0062 -6.28698 2.15694 
-10.092 1.70065 3.54705 -11.0172 2.46547 3.35544 -11.825 3.19574 3.0508 
-12.5653 3.94493 2.66008 -13.2758 4.76891 2.31542 -13.8412 5.59068 2.0213 
-14.2053 6.32317 1.66496 -14.4325 6.9443 1.2151 -14.5144 7.3926 0.696897 
-9.97618 0.844138 3.57061 -10.9525 0.641038 3.23233 -11.9909 0.283819 2.78131 
-12.9721 -0.243968 2.39508 -13.8456 -0.888884 2.0315 -14.5981 -1.61483 1.57606 
-15.0866 -2.39847 1.12592 -15.1647 -3.11885 0.74001 -14.8951 -3.6283 0.318307 
9.08487 -0.740234 2.1377 8.34599 -0.585704 2.03173 7.38482 -0.474259 1.88836 
6.2565 -0.38827 1.80025 4.96528 -0.306341 1.73346 3.5017 -0.223594 1.63468 
1.98567 -0.106406 1.56109 0.550228 0.156572 1.5076 -0.77694 0.662667 1.40196 
9.01569 -1.57919 2.05244 8.29758 -2.2875 1.98339 7.42013 -3.03971 1.95729 
6.3153 -3.77792 1.92865 5.01406 -4.44238 1.89908 3.64593 -5.01223 1.92949 
2.3002 -5.50472 1.97579 1.01796 -5.94477 1.95953 -0.15831 -6.33135 1.91421 
10.9507 -0.0951195 2.29505 12.2672 0.910681 2.43538 13.4641 2.00856 2.49122 
14.5312 3.14971 2.42177 15.5071 4.32157 2.2535 16.3609 5.43854 2.00395 
16.9877 6.42583 1.67474 17.3058 7.28718 1.26997 17.3602 7.92712 0.793202 
10.887 -0.680273 2.18774 12.1534 -0.424987 2.20579 13.3379 -0.218848 2.23261 
14.3786 -0.06949 2.199 15.2134 0.028453 1.98481 15.7919 0.0130925 1.65647 
16.1842 -0.143598 1.356 16.4841 -0.339327 1.02784 16.6182 -0.517406 0.573268 
-2.56787 2.01969 -1.49855 -2.43604 2.24885 -1.25594 -2.35927 2.34017 -0.917681 
-2.31066 2.35774 -0.552994 -2.20078 2.4426 -0.208321 -2.10838 2.48092 0.183386 
-2.11875 2.29343 0.575264 -2.13584 1.96857 0.855432 -2.07587 1.6625 1.06089 
-0.703728 0.86597 -1.59479 1.85739 0.59246 -1.53709 4.7857 1.071 -1.3937 
7.68408 1.95267 -1.12323 10.3013 3.00432 -0.866388 12.5741 4.27136 -0.697256 
14.4209 5.57969 -0.513069 15.7547 6.70071 -0.261451 16.6492 7.59411 0.0135304 
-4.08892 3.1112 -1.72202 -5.26873 4.49905 -1.7277 -6.4553 5.55775 -1.61983 
-7.77183 6.25988 -1.39951 -9.14066 6.76677 -1.15121 -10.4597 7.16357 -0.925303 
-11.6447 7.49639 -0.702516 -12.6882 7.75939 -0.445391 -13.624 7.82618 -0.148854 
-0.132731 0.684482 1.12092 2.03467 0.585911 0.977341 4.37973 1.08043 0.85635 
6.74768 1.77436 0.846192 9.09143 2.53382 0.941075 11.4043 3.59041 0.999125 
13.5276 4.89961 0.937464 15.2281 6.17846 0.788137 16.4391 7.29976 0.578839 
-3.65821 2.7221 1.36305 -5.14546 4.30022 1.63624 -6.37831 5.70538 2.02461 
-7.54467 6.74864 2.21716 -8.8191 7.42456 2.01943 -10.1021 7.74844 1.63201 
-11.2981 7.89628 1.27644 -12.4491 8.00412 0.935347 -13.5176 7.94298 0.555496 
-0.909968 -6.60197 -1.62839 -0.955034 -6.94322 -1.42193 -1.02462 -7.24329 -1.116 
-1.18251 -7.50663 -0.6336 -1.3789 -7.70002 -0.066652 -1.48135 -7.72497 0.467202 
-1.4732 -7.56511 0.971147 -1.41052 -7.3012 1.40276 -1.31491 -6.98766 1.69446 
0.685874 -6.45027 -1.78705 2.41075 -6.49025 -1.76123 4.28509 -6.33674 -1.73943 
6.26228 -6.11648 -1.66904 8.1955 -5.89491 -1.50016 10.0067 -5.38087 -1.27055 
11.8543 -4.31163 -1.01444 13.7424 -2.9373 -0.704736 15.351 -1.69749 -0.334549 
-2.38219 -6.20462 -1.70091 -3.97038 -6.1256 -1.53084 -5.59827 -6.03143 -1.35867 
-7.17912 -5.90928 -1.25781 -8.66025 -5.71532 -1.11472 -10.0666 -5.41607 -0.85857 
-11.3591 -5.0543 -0.646446 -12.4932 -4.70217 -0.520096 -13.523 -4.34369 -0.362779 
0.310537 -6.70667 1.6544 2.08242 -6.63684 1.40334 4.06717 -6.47213 1.1319 
6.13713 -6.22651 0.907476 8.21517 -5.83622 0.815693 10.2806 -5.16873 0.822522 
12.2341 -4.12671 0.765636 13.9575 -2.86896 0.562472 15.3812 -1.70243 0.293746 
-2.69095 -6.69421 2.02053 -4.22318 -6.70705 2.15252 -5.76927 -6.71661 2.19905 
-7.32954 -6.64056 2.10162 -8.89003 -6.41362 1.89215 -10.3793 -6.0652 1.59252 
-11.7088 -5.5909 1.18518 -12.8283 -5.0242 0.720755 -13.7365 -4.45692 0.271516 
18.072 8.70664 0.240759 18.9376 8.60227 0.178016 19.8163 7.7537 0.155523 
20.3283 6.58081 0.18166 20.2073 5.46386 0.203787 19.7087 4.29202 0.201726 
19.1077 2.94733 0.206566 18.3779 1.57525 0.203829 17.4906 0.337211 0.147661 
-15.2882 6.89399 0.0571232 -16.0435 5.90744 -0.0775214 -16.5674 4.78577 -0.226217 
-16.8531 3.53725 -0.350174 -16.981 2.18547 -0.480053 -16.9493 0.871138 -0.625043 
-16.6811 -0.466398 -0.654113 -16.1441 -1.86006 -0.509689 -15.3686 -3.05428 -0.311994 
-8.46262 0.269423 -3.13465 -7.98128 0.766165 -3.14685 -6.9366 -0.217224 -3.02533 
-7.38194 1.24737 -3.09075 -6.29923 0.154318 -2.99741 -5.05639 -0.901445 -2.85001 
-6.65986 1.58007 -2.99361 -5.49558 0.410661 -2.94102 -4.10972 -0.739439 -2.79836 
-2.60511 -1.73139 -2.7141 -5.80609 1.78175 -2.87501 -4.54276 0.47041 -2.80381 
-2.91472 -0.686554 -2.69856 -1.26902 -1.60957 -2.6391 0.276643 -2.25556 -2.67874 
-4.78994 1.85376 -2.69491 -3.4199 0.436599 -2.58612 -1.56993 -0.713727 -2.48917 
0.262288 -1.43814 -2.4914 1.80378 -1.88736 -2.57274 3.12146 -2.1914 -2.69447 
-3.66434 1.67398 -2.40431 -2.1333 0.384341 -2.35718 -0.166436 -0.657291 -2.27986 
1.76852 -1.17883 -2.31842 3.34011 -1.38621 -2.43938 4.59409 -1.55174 -2.58277 
5.65537 -1.75229 -2.69571 -2.53062 1.28723 -2.07037 -0.829882 0.303067 -2.13916 
1.20374 -0.438062 -2.15693 3.11731 -0.748224 -2.21721 4.68697 -0.784021 -2.33805 
5.96206 -0.82998 -2.46031 7.00303 -0.97109 -2.5734 7.84521 -1.17312 -2.63281 
-10.8007 1.47867 -3.25055 -11.7448 2.36239 -3.2189 -10.3872 2.12432 -3.2028 
-12.5088 3.25966 -2.99822 -11.2241 3.06737 -3.054 -9.7739 2.72144 -3.0224 
-13.117 4.1608 -2.6083 -11.8624 3.98237 -2.77075 -10.4614 3.65263 -2.80466 
-8.93945 3.222 -2.82465 -13.5801 5.07412 -2.17279 -12.3672 4.89722 -2.37745 
-11.0042 4.58184 -2.53981 -9.49426 4.16126 -2.60325 -7.9546 3.68911 -2.72924 
-13.8229 5.95291 -1.76156 -12.7019 5.80221 -1.92756 -11.4234 5.51954 -2.17129 
-9.98298 5.09995 -2.33601 -8.4092 4.60029 -2.46924 -6.93555 4.0142 -2.63094 
-13.8831 6.74578 -1.31192 -12.8326 6.61649 -1.47617 -11.648 6.36812 -1.70056 
-10.3096 5.99105 -1.93571 -8.81787 5.44257 -2.11436 -7.29867 4.81055 -2.28133 
-5.96222 3.99094 -2.3756 -13.8243 7.39598 -0.759387 -12.8251 7.28212 -0.995033 
-11.7086 7.02539 -1.20759 -10.4383 6.6952 -1.43423 -9.04534 6.2077 -1.65808 
-7.59414 5.56436 -1.86357 -6.24415 4.76137 -2.00842 -5.03139 3.64181 -2.02476 
-12.6298 8.04712 0.245215 -11.4609 8.04911 0.617589 -11.6067 7.88008 -0.0823406 
-10.2397 7.97821 0.969758 -10.3681 7.87502 0.274388 -10.4747 7.54865 -0.371529 
-8.979 7.80684 1.37303 -9.07194 7.82566 0.648306 -9.16237 7.52077 -0.0331435 
-9.19022 7.15318 -0.621408 -7.66711 7.32406 1.75026 -7.72133 7.62507 1.06262 
-7.77529 7.48626 0.313533 -7.82114 7.12516 -0.333028 -7.80689 6.74654 -0.895104 
-6.44086 6.39321 1.8094 -6.41582 6.99581 1.33344 -6.40039 7.20754 0.616378 
-6.45074 6.99288 -0.0821001 -6.47444 6.63769 -0.667054 -6.4568 6.17432 -1.18808 
-5.24242 4.94994 1.52159 -5.21337 5.65026 1.27138 -5.14234 6.14177 0.737713 
[...]
POINT_DATA 1002
FIELD FieldData 4
_paraPhi 1 1002 double
6.2831853072 3.1415926536 6.2831853072 3.1415926536 4.7123889804 4.7123889804 1.5707963268 1.5707963268 3.6951670125 
5.7296109483 2.5880182947 0.5535743589 6.2831853072 6.2831853072 6.2831853072 6.2831853072 3.1415926536 3.1415926536 
3.1415926536 3.1415926536 3.1415926536 6.1053039672 5.898798347 5.6768734901 5.4599499503 5.2659633393 5.1032165617 
4.9713148346 4.8656852733 4.7809517865 0.17788134 0.38438696014 0.60631181711 0.82323535693 1.0172219679 1.1799687454 
1.3118704726 1.4175000338 1.5022335207 6.1892828907 6.1070320098 6.035312792 5.9728339911 5.9183214791 5.8706119594 
5.8286879411 5.7916808611 5.7588591896 0.093902416448 0.17615329733 0.2478725152 0.31035131605 0.36486382811 0.41257334776 
0.45449736604 0.4915044461 0.52432611754 3.3194739936 3.5259796137 3.7479044707 3.9648280105 4.1588146215 4.321561399 
4.4534631262 4.5590926874 4.6438261743 2.9637113136 2.7572056934 2.5352808365 2.3183572967 2.1243706857 1.9616239082 
1.829722181 1.7240926197 1.6393591329 3.23549507 3.3177459509 3.3894651688 3.4519439696 3.5064564817 3.5541660013 
3.5960900196 3.6330970997 3.6659187711 3.0476902371 2.9654393563 2.8937201384 2.8312413375 2.7767288255 2.7290193058 
2.6870952876 2.6500882075 2.617266536 6.2831853072 6.2831853072 6.2831853072 6.2831853072 3.1415926536 3.1415926536 
3.1415926536 3.1415926536 3.1415926536 6.1053039672 5.898798347 5.6768734901 5.4599499503 5.2659633393 5.1032165617 
4.9713148346 4.8656852733 4.7809517865 0.17788134 0.38438696014 0.60631181711 0.82323535693 1.0172219679 1.1799687454 
1.3118704726 1.4175000338 1.5022335207 6.1892828907 6.1070320098 6.035312792 5.9728339911 5.9183214791 5.8706119594 
5.8286879411 5.7916808611 5.7588591896 0.093902416448 0.17615329733 0.2478725152 0.31035131605 0.36486382811 0.41257334776 
0.45449736604 0.4915044461 0.52432611754 3.3194739936 3.5259796137 3.7479044707 3.9648280105 4.1588146215 4.321561399 
4.4534631262 4.5590926874 4.6438261743 2.9637113136 2.7572056934 2.5352808365 2.3183572967 2.1243706857 1.9616239082 
1.829722181 1.7240926197 1.6393591329 3.23549507 3.3177459509 3.3894651688 3.4519439696 3.5064564817 3.5541660013 
3.5960900196 3.6330970997 3.6659187711 3.0476902371 2.9654393563 2.8937201384 2.8312413375 2.7767288255 2.7290193058 
2.6870952876 2.6500882075 2.617266536 4.7123889804 4.7123889804 4.7123889804 4.7123889804 4.7123889804 4.7123889804 
4.7123889804 4.7123889804 4.7123889804 4.6087898617 4.4991390697 4.3857031936 4.2712800401 4.1588146215 4.0509635631 
3.94975894 3.8564636551 3.7716124825 4.8159880991 4.9256388911 5.0390747672 5.1534979207 5.2659633393 5.3738143976 
5.4750190208 5.5683143056 5.6531654782 4.6087898617 4.4991390697 4.3857031936 4.2712800401 4.1588146215 4.0509635631 
3.94975894 3.8564636551 3.7716124825 4.8159880991 4.9256388911 5.0390747672 5.1534979207 5.2659633393 5.3738143976 
5.4750190208 5.5683143056 5.6531654782 1.5707963268 1.5707963268 1.5707963268 1.5707963268 1.5707963268 1.5707963268 
1.5707963268 1.5707963268 1.5707963268 1.6743954455 1.7840462375 1.8974821136 2.0119052671 2.1243706857 2.232221744 
2.3334263672 2.426721652 2.5115728246 1.4671972081 1.3575464161 1.24411054 1.1296873865 1.0172219679 0.90937090954 
0.80816628637 0.71487100155 0.63001982895 1.6743954455 1.7840462375 1.8974821136 2.0119052671 2.1243706857 2.232221744 
2.3334263672 2.426721652 2.5115728246 1.4671972081 1.3575464161 1.24411054 1.1296873865 1.0172219679 0.90937090954 
0.80816628637 0.71487100155 0.63001982895 3.6007720849 3.4966939854 3.3839471039 3.2645756454 3.1415926536 3.0186096618 
2.8992382033 2.7864913217 2.6824132222 5.8240058758 5.9280839753 6.0408308569 6.1602023154 6.2831853072 0.12298299178 
0.2423544503 0.35510133185 0.45917943135 6.0560271438 5.7885595667 5.9702140275 5.5125918794 5.6029703303 5.7885595667 
5.2659633393 5.2659633393 5.2659633393 5.2659633393 5.0674903122 5.0120975802 4.9155579264 4.7123889804 4.1588146215 
4.9155579264 4.8353719722 4.7123889804 4.5092200343 4.1588146215 3.6362183941 4.8004512023 4.7123889804 4.5894059886 
4.4126803806 4.1588146215 3.8218076305 3.4545639333 4.7123889804 4.6243267584 4.5092200343 4.3572876485 4.1588146215 
3.9121860814 3.6362183941 3.368750817 6.0174235957 5.9434319871 5.8263323547 5.8809213739 5.7674481418 5.6279784266 
5.8278025282 5.718968232 5.5891129425 5.4372443565 5.7823484065 5.678536687 5.5575666702 5.4192596322 5.2659633393 
5.743164462 5.6444075337 5.5314983644 5.4046708639 5.2659633393 5.1195510325 5.7091357773 5.6152775188 5.5096229709 
5.3926039573 5.2659633393 5.1329233157 4.9978930058 5.6793730533 5.5901633916 5.4910209005 5.3824597928 5.2659633393 
5.1440684722 5.0201624502 4.8979782167 5.5683143056 5.4750190208 5.4750190208 5.3738143976 5.3738143976 5.3738143976 
5.2659633393 5.2659633393 5.2659633393 5.2659633393 5.1534979207 5.1534979207 5.1534979207 5.1534979207 5.1534979207 
5.0390747672 5.0390747672 5.0390747672 5.0390747672 5.0390747672 5.0390747672 4.9256388911 4.9256388911 4.9256388911 
4.9256388911 4.9256388911 4.9256388911 4.9256388911 4.8159880991 4.8159880991 4.8159880991 4.8159880991 4.8159880991 
4.8159880991 4.8159880991 4.8159880991 4.6087898617 4.6087898617 4.4991390697 4.6087898617 4.4991390697 4.3857031936 
4.6087898617 4.4991390697 4.3857031936 4.2712800401 4.6087898617 4.4991390697 4.3857031936 4.2712800401 4.1588146215 
4.6087898617 4.4991390697 4.3857031936 4.2712800401 4.1588146215 4.0509635631 4.6087898617 4.4991390697 4.3857031936 
4.2712800401 4.1588146215 4.0509635631 3.94975894 4.6087898617 4.4991390697 4.3857031936 4.2712800401 4.1588146215 
4.0509635631 3.94975894 3.8564636551 4.526799744 4.4046155105 4.426884955 4.2807094886 4.2918546451 4.3052269283 
4.1588146215 4.1588146215 4.1588146215 4.1588146215 4.042318168 4.0321740035 4.0201070968 4.0055183285 3.9875336042 
3.9337570603 3.9151549899 3.8932795963 3.8672112905 3.8356650183 3.7967995342 3.8346145692 3.809500442 3.7803704271 
3.7462412737 3.7058097288 3.657329819 3.5984456061 3.7454049075 3.7156421835 3.6816134988 3.6424295543 3.5969754326 
3.5438565869 3.4813459737 3.4073543651 3.5642842451 3.4524645613 3.5233842518 3.3320300872 3.403123212 3.4773852225 
3.20576226 3.2746326772 3.348015857 3.4255060145 3.0774230472 3.1415926536 3.2112816139 3.2864685043 3.3668817272 
2.95115522 3.00855263 3.0719036933 3.1415926536 3.2178377658 3.3005964304 2.8307207459 2.8800620952 2.9351694502 
2.9967168029 3.0653475414 3.1415926536 3.225752376 2.718901062 2.7598010554 2.8058000847 2.8576792927 2.91630358 
2.9825888767 3.0574329311 3.1415926536 3.5642842451 3.5233842518 3.4524645613 3.4773852225 3.403123212 3.3320300872 
3.4255060145 3.348015857 3.2746326772 3.20576226 3.3668817272 3.2864685043 3.2112816139 3.1415926536 3.0774230472 
3.3005964304 3.2178377658 3.1415926536 3.0719036933 3.00855263 2.95115522 3.225752376 3.1415926536 3.0653475414 
2.9967168029 2.9351694502 2.8800620952 2.8307207459 3.1415926536 3.0574329311 2.9825888767 2.91630358 2.8576792927 
2.8058000847 2.7598010554 2.718901062 4.526799744 4.426884955 4.4046155105 4.3052269283 4.2918546451 4.2807094886 
4.1588146215 4.1588146215 4.1588146215 4.1588146215 3.9875336042 4.0055183285 4.0201070968 4.0321740035 4.042318168 
3.7967995342 3.8356650183 3.8672112905 3.8932795963 3.9151549899 3.9337570603 3.5984456061 3.657329819 3.7058097288 
3.7462412737 3.7803704271 3.809500442 3.8346145692 3.4073543651 3.4813459737 3.5438565869 3.5969754326 3.6424295543 
3.6816134988 3.7156421835 3.7454049075 4.7123889804 4.8004512023 4.6243267584 4.9155579264 4.7123889804 4.5092200343 
5.0674903122 4.8353719722 4.5894059886 4.3572876485 5.2659633393 5.0120975802 4.7123889804 4.4126803806 4.1588146215 
5.5125918794 5.2659633393 4.9155579264 4.5092200343 4.1588146215 3.9121860814 5.7885595667 5.6029703303 5.2659633393 
4.7123889804 4.1588146215 3.8218076305 3.6362183941 6.0560271438 5.9702140275 5.7885595667 5.2659633393 4.1588146215 
3.6362183941 3.4545639333 3.368750817 0.22715816343 0.49462574053 0.3129712797 0.77059342779 0.68021497688 0.49462574053 
1.0172219679 1.0172219679 1.0172219679 1.0172219679 1.2156949949 1.271087727 1.3676273807 1.5707963268 2.1243706857 
1.3676273807 1.447813335 1.5707963268 1.7739652728 2.1243706857 2.6469669131 1.4827341049 1.5707963268 1.6937793186 
1.8705049266 2.1243706857 2.4613776767 2.8286213739 1.5707963268 1.6588585487 1.7739652728 1.9258976586 2.1243706857 
2.3709992258 2.6469669131 2.9144344902 1.7563855631 1.8785697967 1.8563003522 2.0024758186 1.9913306621 1.9779583789 
2.1243706857 2.1243706857 2.1243706857 2.1243706857 2.2408671392 2.2510113037 2.2630782103 2.2776669786 2.295651703 
2.3494282469 2.3680303173 2.3899057108 2.4159740166 2.4475202889 2.486385773 2.448570738 2.4736848652 2.5028148801 
2.5369440334 2.5773755784 2.6258554882 2.6847397011 2.5377803997 2.5675431237 2.6015718084 2.6407557529 2.6862098746 
2.7393287203 2.8018393335 2.8758309421 1.6743954455 1.6743954455 1.7840462375 1.6743954455 1.7840462375 1.8974821136 
1.6743954455 1.7840462375 1.8974821136 2.0119052671 1.6743954455 1.7840462375 1.8974821136 2.0119052671 2.1243706857 
1.6743954455 1.7840462375 1.8974821136 2.0119052671 2.1243706857 2.232221744 1.6743954455 1.7840462375 1.8974821136 
2.0119052671 2.1243706857 2.232221744 2.3334263672 1.6743954455 1.7840462375 1.8974821136 2.0119052671 2.1243706857 
2.232221744 2.3334263672 2.426721652 1.4671972081 1.3575464161 1.4671972081 1.24411054 1.3575464161 1.4671972081 
1.1296873865 1.24411054 1.3575464161 1.4671972081 1.0172219679 1.1296873865 1.24411054 1.3575464161 1.4671972081 
0.90937090954 1.0172219679 1.1296873865 1.24411054 1.3575464161 1.4671972081 0.80816628637 0.90937090954 1.0172219679 
1.1296873865 1.24411054 1.3575464161 1.4671972081 0.71487100155 0.80816628637 0.90937090954 1.0172219679 1.1296873865 
1.24411054 1.3575464161 1.4671972081 0.60381225391 0.57404952988 0.69302191562 0.54002084522 0.66790778838 0.79216440667 
0.50083690068 0.63877777351 0.77356233629 0.90072551443 0.45538277901 0.60464862014 0.75168694275 0.89058134991 1.0172219679 
0.40226393329 0.56421707518 0.72561863695 0.87851444325 1.0172219679 1.139116835 0.33975332011 0.51573716537 0.69407236469 
0.86392567495 1.0172219679 1.1502619915 1.2630228569 0.26576171152 0.45685295248 0.6552068806 0.84594095064 1.0172219679 
1.1636342747 1.2852923014 1.3852070904 0.22715816343 0.3129712797 0.49462574053 0.49462574053 0.68021497688 0.77059342779 
1.0172219679 1.0172219679 1.0172219679 1.0172219679 2.1243706857 1.5707963268 1.3676273807 1.271087727 1.2156949949 
2.6469669131 2.1243706857 1.7739652728 1.5707963268 1.447813335 1.3676273807 2.8286213739 2.4613776767 2.1243706857 
1.8705049266 1.6937793186 1.5707963268 1.4827341049 2.9144344902 2.6469669131 2.3709992258 2.1243706857 1.9258976586 
1.7739652728 1.6588585487 1.5707963268 1.7563855631 1.8563003522 1.8785697967 1.9779583789 1.9913306621 2.0024758186 
2.1243706857 2.1243706857 2.1243706857 2.1243706857 2.295651703 2.2776669786 2.2630782103 2.2510113037 2.2408671392 
2.486385773 2.4475202889 2.4159740166 2.3899057108 2.3680303173 2.3494282469 2.6847397011 2.6258554882 2.5773755784 
2.5369440334 2.5028148801 2.4736848652 2.448570738 2.8758309421 2.8018393335 2.7393287203 2.6862098746 2.6407557529 
2.6015718084 2.5675431237 2.5377803997 5.8604937156 5.901393709 5.9723133995 5.9473927383 6.0216547488 6.0927478736 
5.9992719463 6.0767621038 6.1501452836 6.2190157008 6.0578962336 6.1383094565 6.2134963469 0 0.064169606361 
6.1241815303 6.206940195 6.2831853072 0.069688960264 0.13304002361 0.19043743361 6.1990255847 0 0.07624511221 
0.14487585072 0.20642320337 0.26153055843 0.3108719077 0 0.084159722458 0.15900377685 0.22528907359 0.28391336087 
0.3357925689 0.38179159818 0.42269159155 5.8604937156 5.9723133995 5.901393709 6.0927478736 6.0216547488 5.9473927383 
6.2190157008 6.1501452836 6.0767621038 5.9992719463 0.064169606361 0 6.2134963469 6.1383094565 6.0578962336 
0.19043743361 0.13304002361 0.069688960264 6.2831853072 6.206940195 6.1241815303 0.3108719077 0.26153055843 0.20642320337 
0.14487585072 0.07624511221 6.2831853072 6.1990255847 0.42269159155 0.38179159818 0.3357925689 0.28391336087 0.22528907359 
0.15900377685 0.084159722458 0 5.6793730533 5.7091357773 5.5901633916 5.743164462 5.6152775188 5.4910209005 
5.7823484065 5.6444075337 5.5096229709 5.3824597928 5.8278025282 5.678536687 5.5314983644 5.3926039573 5.2659633393 
5.8809213739 5.718968232 5.5575666702 5.4046708639 5.2659633393 5.1440684722 5.9434319871 5.7674481418 5.5891129425 
5.4192596322 5.2659633393 5.1329233157 5.0201624502 6.0174235957 5.8263323547 5.6279784266 5.4372443565 5.2659633393 
5.1195510325 4.9978930058 4.8979782167 1.3852070904 1.2852923014 1.2630228569 1.1636342747 1.1502619915 1.139116835 
1.0172219679 1.0172219679 1.0172219679 1.0172219679 0.84594095064 0.86392567495 0.87851444325 0.89058134991 0.90072551443 
0.6552068806 0.69407236469 0.72561863695 0.75168694275 0.77356233629 0.79216440667 0.45685295248 0.51573716537 0.56421707518 
0.60464862014 0.63877777351 0.66790778838 0.69302191562 0.26576171152 0.33975332011 0.40226393329 0.45538277901 0.50083690068 
0.54002084522 0.57404952988 0.60381225391 
_paraPhiHalf 1 1002 double
0 3.1415926536 0 3.1415926536 1.5707963268 1.5707963268 1.5707963268 1.5707963268 2.5880182947 
0.5535743589 2.5880182947 0.5535743589 0 0 0 0 3.1415926536 3.1415926536 
3.1415926536 3.1415926536 3.1415926536 0.17788134 0.38438696014 0.60631181711 0.82323535693 1.0172219679 1.1799687454 
1.3118704726 1.4175000338 1.5022335207 0.17788134 0.38438696014 0.60631181711 0.82323535693 1.0172219679 1.1799687454 
1.3118704726 1.4175000338 1.5022335207 0.093902416448 0.17615329733 0.2478725152 0.31035131605 0.36486382811 0.41257334776 
0.45449736604 0.4915044461 0.52432611754 0.093902416448 0.17615329733 0.2478725152 0.31035131605 0.36486382811 0.41257334776 
0.45449736604 0.4915044461 0.52432611754 2.9637113136 2.7572056934 2.5352808365 2.3183572967 2.1243706857 1.9616239082 
1.829722181 1.7240926197 1.6393591329 2.9637113136 2.7572056934 2.5352808365 2.3183572967 2.1243706857 1.9616239082 
1.829722181 1.7240926197 1.6393591329 3.0476902371 2.9654393563 2.8937201384 2.8312413375 2.7767288255 2.7290193058 
2.6870952876 2.6500882075 2.617266536 3.0476902371 2.9654393563 2.8937201384 2.8312413375 2.7767288255 2.7290193058 
2.6870952876 2.6500882075 2.617266536 0 0 0 0 3.1415926536 3.1415926536 
3.1415926536 3.1415926536 3.1415926536 0.17788134 0.38438696014 0.60631181711 0.82323535693 1.0172219679 1.1799687454 
1.3118704726 1.4175000338 1.5022335207 0.17788134 0.38438696014 0.60631181711 0.82323535693 1.0172219679 1.1799687454 
1.3118704726 1.4175000338 1.5022335207 0.093902416448 0.17615329733 0.2478725152 0.31035131605 0.36486382811 0.41257334776 
0.45449736604 0.4915044461 0.52432611754 0.093902416448 0.17615329733 0.2478725152 0.31035131605 0.36486382811 0.41257334776 
0.45449736604 0.4915044461 0.52432611754 2.9637113136 2.7572056934 2.5352808365 2.3183572967 2.1243706857 1.9616239082 
1.829722181 1.7240926197 1.6393591329 2.9637113136 2.7572056934 2.5352808365 2.3183572967 2.1243706857 1.9616239082 
1.829722181 1.7240926197 1.6393591329 3.0476902371 2.9654393563 2.8937201384 2.8312413375 2.7767288255 2.7290193058 
2.6870952876 2.6500882075 2.617266536 3.0476902371 2.9654393563 2.8937201384 2.8312413375 2.7767288255 2.7290193058 
2.6870952876 2.6500882075 2.617266536 1.5707963268 1.5707963268 1.5707963268 1.5707963268 1.5707963268 1.5707963268 
1.5707963268 1.5707963268 1.5707963268 1.6743954455 1.7840462375 1.8974821136 2.0119052671 2.1243706857 2.232221744 
2.3334263672 2.426721652 2.5115728246 1.4671972081 1.3575464161 1.24411054 1.1296873865 1.0172219679 0.90937090954 
0.80816628637 0.71487100155 0.63001982895 1.6743954455 1.7840462375 1.8974821136 2.0119052671 2.1243706857 2.232221744 
2.3334263672 2.426721652 2.5115728246 1.4671972081 1.3575464161 1.24411054 1.1296873865 1.0172219679 0.90937090954 
0.80816628637 0.71487100155 0.63001982895 1.5707963268 1.5707963268 1.5707963268 1.5707963268 1.5707963268 1.5707963268 
1.5707963268 1.5707963268 1.5707963268 1.6743954455 1.7840462375 1.8974821136 2.0119052671 2.1243706857 2.232221744 
2.3334263672 2.426721652 2.5115728246 1.4671972081 1.3575464161 1.24411054 1.1296873865 1.0172219679 0.90937090954 
0.80816628637 0.71487100155 0.63001982895 1.6743954455 1.7840462375 1.8974821136 2.0119052671 2.1243706857 2.232221744 
2.3334263672 2.426721652 2.5115728246 1.4671972081 1.3575464161 1.24411054 1.1296873865 1.0172219679 0.90937090954 
0.80816628637 0.71487100155 0.63001982895 2.6824132222 2.7864913217 2.8992382033 3.0186096618 3.1415926536 3.0186096618 
2.8992382033 2.7864913217 2.6824132222 0.45917943135 0.35510133185 0.2423544503 0.12298299178 0 0.12298299178 
0.2423544503 0.35510133185 0.45917943135 0.22715816343 0.49462574053 0.3129712797 0.77059342779 0.68021497688 0.49462574053 
1.0172219679 1.0172219679 1.0172219679 1.0172219679 1.2156949949 1.271087727 1.3676273807 1.5707963268 2.1243706857 
1.3676273807 1.447813335 1.5707963268 1.7739652728 2.1243706857 2.6469669131 1.4827341049 1.5707963268 1.6937793186 
1.8705049266 2.1243706857 2.4613776767 2.8286213739 1.5707963268 1.6588585487 1.7739652728 1.9258976586 2.1243706857 
2.3709992258 2.6469669131 2.9144344902 0.26576171152 0.33975332011 0.45685295248 0.40226393329 0.51573716537 0.6552068806 
0.45538277901 0.56421707518 0.69407236469 0.84594095064 0.50083690068 0.60464862014 0.72561863695 0.86392567495 1.0172219679 
0.54002084522 0.63877777351 0.75168694275 0.87851444325 1.0172219679 1.1636342747 0.57404952988 0.66790778838 0.77356233629 
0.89058134991 1.0172219679 1.1502619915 1.2852923014 0.60381225391 0.69302191562 0.79216440667 0.90072551443 1.0172219679 
1.139116835 1.2630228569 1.3852070904 0.71487100155 0.80816628637 0.80816628637 0.90937090954 0.90937090954 0.90937090954 
1.0172219679 1.0172219679 1.0172219679 1.0172219679 1.1296873865 1.1296873865 1.1296873865 1.1296873865 1.1296873865 
1.24411054 1.24411054 1.24411054 1.24411054 1.24411054 1.24411054 1.3575464161 1.3575464161 1.3575464161 
1.3575464161 1.3575464161 1.3575464161 1.3575464161 1.4671972081 1.4671972081 1.4671972081 1.4671972081 1.4671972081 
1.4671972081 1.4671972081 1.4671972081 1.6743954455 1.6743954455 1.7840462375 1.6743954455 1.7840462375 1.8974821136 
1.6743954455 1.7840462375 1.8974821136 2.0119052671 1.6743954455 1.7840462375 1.8974821136 2.0119052671 2.1243706857 
1.6743954455 1.7840462375 1.8974821136 2.0119052671 2.1243706857 2.232221744 1.6743954455 1.7840462375 1.8974821136 
2.0119052671 2.1243706857 2.232221744 2.3334263672 1.6743954455 1.7840462375 1.8974821136 2.0119052671 2.1243706857 
2.232221744 2.3334263672 2.426721652 1.7563855631 1.8785697967 1.8563003522 2.0024758186 1.9913306621 1.9779583789 
2.1243706857 2.1243706857 2.1243706857 2.1243706857 2.2408671392 2.2510113037 2.2630782103 2.2776669786 2.295651703 
2.3494282469 2.3680303173 2.3899057108 2.4159740166 2.4475202889 2.486385773 2.448570738 2.4736848652 2.5028148801 
2.5369440334 2.5773755784 2.6258554882 2.6847397011 2.5377803997 2.5675431237 2.6015718084 2.6407557529 2.6862098746 
2.7393287203 2.8018393335 2.8758309421 2.718901062 2.8307207459 2.7598010554 2.95115522 2.8800620952 2.8058000847 
3.0774230472 3.00855263 2.9351694502 2.8576792927 3.0774230472 3.1415926536 3.0719036933 2.9967168029 2.91630358 
2.95115522 3.00855263 3.0719036933 3.1415926536 3.0653475414 2.9825888767 2.8307207459 2.8800620952 2.9351694502 
2.9967168029 3.0653475414 3.1415926536 3.0574329311 2.718901062 2.7598010554 2.8058000847 2.8576792927 2.91630358 
2.9825888767 3.0574329311 3.1415926536 2.718901062 2.7598010554 2.8307207459 2.8058000847 2.8800620952 2.95115522 
2.8576792927 2.9351694502 3.00855263 3.0774230472 2.91630358 2.9967168029 3.0719036933 3.1415926536 3.0774230472 
2.9825888767 3.0653475414 3.1415926536 3.0719036933 3.00855263 2.95115522 3.0574329311 3.1415926536 3.0653475414 