# vtk DataFile Version 5.1
vtk output
ASCII
DATASET POLYDATA
POINTS 100 float
-4.29157 4.5102 1.59064 -4.29326 4.50826 1.58494 -4.29981 4.49954 1.57189 
-4.31287 4.48269 1.55259 -4.33489 4.45569 1.52869 -4.36862 4.41618 1.50219 
-4.41669 4.36177 1.47517 -4.48115 4.29044 1.44955 -4.56314 4.20075 1.42686 
-4.66277 4.09211 1.4081 -4.77915 3.96475 1.39368 -4.91066 3.81971 1.38337 
-5.05523 3.6586 1.37644 -5.21079 3.48338 1.37179 -5.37561 3.29605 1.36805 
-5.54856 3.09844 1.36383 -5.72921 2.89198 1.35777 -5.9178 2.67765 1.34871 
-6.11509 2.456 1.33576 -6.32204 2.22723 1.31828 -6.53964 1.99141 1.29593 
-6.76857 1.74864 1.26863 -7.00915 1.49923 1.23656 -7.26127 1.24383 1.20008 
-7.52445 0.983401 1.15971 -7.79802 0.719217 1.11607 -8.08129 0.452672 1.06981 
-8.37365 0.185106 1.02157 -8.67468 -0.0823907 0.971855 -8.98414 -0.34914 0.920986 
-9.30185 -0.614956 0.869018 -9.62758 -0.880141 0.815708 -9.96093 -1.14537 0.760518 
-10.3013 -1.41151 0.702669 -10.6477 -1.67937 0.641249 -10.9993 -1.94952 0.575356 
-11.3555 -2.22209 0.504263 -11.716 -2.49669 0.427568 -12.0814 -2.77254 0.3453 
-12.4535 -3.04857 0.257956 -12.835 -3.32377 0.166437 -13.2295 -3.59755 0.0719001 
-13.6411 -3.87007 -0.0244801 -14.0739 -4.14256 -0.121788 -14.531 -4.41747 -0.219646 
-15.0139 -4.69851 -0.318444 -15.5222 -4.99039 -0.419457 -16.053 -5.29854 -0.524834 
-16.6007 -5.62853 -0.637419 -17.158 -5.98553 -0.76044 -17.7157 -6.37374 -0.897082 
-18.2645 -6.79589 -1.05002 -18.7952 -7.25294 -1.22095 -19.3003 -7.74391 -1.41028 
-19.7743 -8.26603 -1.6169 -20.2146 -8.81501 -1.83819 -20.6211 -9.38555 -2.07026 
-20.9961 -9.97189 -2.30834 -21.3437 -10.5684 -2.54728 -21.6689 -11.1703 -2.7822 
-21.9767 -11.7736 -3.00897 -22.2713 -12.3761 -3.2247 -22.5554 -12.9767 -3.428 
-22.8297 -13.5758 -3.61899 -23.0935 -14.1746 -3.79918 -23.3443 -14.7754 -3.97109 
-23.5789 -15.3802 -4.13778 -23.7934 -15.9912 -4.30233 -23.9849 -16.61 -4.46735 
-24.1508 -17.2373 -4.63463 -24.2902 -17.8729 -4.80488 -24.4034 -18.5159 -4.97776 
-24.492 -19.1641 -5.15202 -24.5584 -19.8147 -5.32579 -24.606 -20.4644 -5.49698 
-24.638 -21.1093 -5.66364 -24.6576 -21.7453 -5.8243 -24.6674 -22.3684 -5.9782 
-24.6696 -22.9745 -6.12535 -24.6659 -23.56 -6.2664 -24.6578 -24.1216 -6.40245 
-24.6463 -24.6565 -6.53474 -24.6329 -25.1626 -6.66429 -24.6191 -25.6385 -6.79158 
-24.6067 -26.0835 -6.91639 -24.5977 -26.4976 -7.03764 -24.5941 -26.8813 -7.15356 
-24.5978 -27.2357 -7.26179 -24.6102 -27.562 -7.3598 -24.632 -27.8614 -7.44519 
-24.6632 -28.1351 -7.51612 -24.7025 -28.3836 -7.5716 -24.7482 -28.607 -7.61169 
-24.7976 -28.805 -7.63753 -24.8473 -28.9763 -7.65127 -24.8941 -29.1195 -7.65575 
-24.9345 -29.2331 -7.65418 -24.9657 -29.3154 -7.6497 -24.9852 -29.3649 -7.64491 
-24.9916 -29.3809 -7.64159 
LINES 2 100
OFFSETS vtktypeint64
0 100 
CONNECTIVITY vtktypeint64
0 1 2 3 4 5 6 7 8 
9 10 11 12 13 14 15 16 17 
18 19 20 21 22 23 24 25 26 
27 28 29 30 31 32 33 34 35 
36 37 38 39 40 41 42 43 44 
45 46 47 48 49 50 51 52 53 
54 55 56 57 58 59 60 61 62 
63 64 65 66 67 68 69 70 71 
72 73 74 75 76 77 78 79 80 
81 82 83 84 85 86 87 88 89 
90 91 92 93 94 95 96 97 98 
99 
POINT_DATA 100
FIELD FieldData 3
_theta 1 100 double
0 0.031733259127 0.063466518254 0.095199777382 0.12693303651 0.15866629564 0.19039955476 0.22213281389 0.25386607302 
0.28559933214 0.31733259127 0.3490658504 0.38079910953 0.41253236865 0.44426562778 0.47599888691 0.50773214603 0.53946540516 
0.57119866429 0.60293192342 0.63466518254 0.66639844167 0.6981317008 0.72986495992 0.76159821905 0.79333147818 0.82506473731 
0.85679799643 0.88853125556 0.92026451469 0.95199777382 0.98373103294 1.0154642921 1.0471975512 1.0789308103 1.1106640695 
1.1423973286 1.1741305877 1.2058638468 1.237597106 1.2693303651 1.3010636242 1.3327968833 1.3645301425 1.3962634016 
1.4279966607 1.4597299198 1.491463179 1.5231964381 1.5549296972 1.5866629564 1.6183962155 1.6501294746 1.6818627337 
1.7135959929 1.745329252 1.7770625111 1.8087957702 1.8405290294 1.8722622885 1.9039955476 1.9357288068 1.9674620659 
1.999195325 2.0309285841 2.0626618433 2.0943951024 2.1261283615 2.1578616206 2.1895948798 2.2213281389 2.253061398 
2.2847946572 2.3165279163 2.3482611754 2.3799944345 2.4117276937 2.4434609528 2.4751942119 2.506927471 2.5386607302 
2.5703939893 2.6021272484 2.6338605076 2.6655937667 2.6973270258 2.7290602849 2.7607935441 2.7925268032 2.8242600623 
2.8559933214 2.8877265806 2.9194598397 2.9511930988 2.982926358 3.0146596171 3.0463928762 3.0781261353 3.1098593945 
3.1415926536 
_radius 1 100 double
7.8063759151e-15 0.30385446133 0.60664374159 0.9073414067 1.2050474775 1.4989997771 1.7885445616 2.0730785477 2.3519790662 
2.6245355361 2.8898892394 3.1469863937 3.3945543604 3.6311180973 3.855075104 4.0648360983 4.2590173969 4.4366490778 
4.5973516103 4.7414381467 4.86991715 4.9843923947 5.086876844 5.1795496527 5.2644918669 5.3434383092 5.4175815661 
5.4874576221 5.5529296106 5.613267148 5.667298868 5.713602274 5.7506922802 5.7771767078 5.7918585904 5.7937770123 
5.7821890412 5.7565060793 5.7162089952 5.6607756114 5.5896574163 5.502336165 5.398474593 5.2781515606 5.142145908 
4.9922114728 4.8312742892 4.6634867821 4.4940944077 4.3291034912 4.1747752154 4.0370017118 3.9206484308 3.8289772525 
3.7632778198 3.7227923295 3.7049301259 3.7057013897 3.7202867857 3.743666774 3.7712322681 3.7992948134 3.8254207987 
3.8485337546 3.8687640268 3.8870768599 3.9047681453 3.9229575355 3.9422053324 3.9623275129 3.9824091182 4.0009607473 
4.0161488698 4.0260478766 4.0288818271 4.0232287869 4.0081561656 3.9832570186 3.9485701833 3.9043856225 3.8509571597 
3.7881713298 3.7152518435 3.6305981607 3.53184234 3.4161533834 3.2807394281 3.1234263851 2.9431548942 2.7402505564 
2.5163851921 2.2742431905 2.0170039897 1.7478089362 1.4693718493 1.1838238355 0.89278830874 0.59760054294 0.2995452505 
6.9602260531e-14 
_area 1 100 double
0 0.26431751625 1.0532008901 2.3543363976 4.1470835523 6.4028800161 9.0863427558 12.156799378 15.569768285 
19.278171488 23.233538789 27.38756092 31.693647641 36.107021507 40.581833953 45.066152353 49.498728765 53.811243133 
57.935959316 61.815611074 65.412048087 68.711354358 71.724346871 74.482413463 77.029736306 79.413843065 81.676667802 
83.847705412 85.939743686 87.946719447 89.843023734 91.584136604 93.109266872 94.346859674 95.222930135 95.670603198 
95.638077728 95.092431107 94.018378696 92.413518457 90.283412638 87.639999 84.505138919 80.918503711 76.946783451 
72.690252635 68.283210038 63.886451718 59.671886516 55.799959939 52.391062459 49.502947401 47.137837234 45.272483269 
43.876243083 42.910560631 42.325798052 42.063617196 42.061652806 42.254992799 42.575320652 42.954982151 43.338839145 
43.696500169 44.025581519 44.343005611 44.668193214 45.006015454 45.337553469 45.622644734 45.811902954 45.861483036 
45.743996731 45.452707455 45.000047957 44.412671381 43.723788254 42.962875152 42.145512201 41.268510197 40.311894141 
39.243250252 38.019928919 36.589716204 34.894062797 32.87737918 30.50251003 27.76791895 24.718975105 21.447017483 
18.075554766 14.739288877 11.564398952 8.6562628085 6.0957447215 3.9412378825 2.2329258268 0.99712828462 0.24995463079 
1.4560741947e-13 
