# vtk DataFile Version 5.1
vtk output
ASCII
DATASET POLYDATA
POINTS 1002 float
-10.0784 0.00505883 -3.0694 10.0465 -0.9186 -2.95099 -9.42771 1.0225 3.29405 
9.43821 -1.1357 1.61158 -2.41165 2.02863 -1.86746 -2.03503 1.55645 1.44364 
-0.95333 -6.09249 -1.52218 -1.0745 -6.8243 2.09352 17.9167 8.31533 1.06332 
-14.4157 7.50661 0.279278 16.7667 -0.786049 -0.124106 -14.6404 -3.85509 -0.203917 
-8.88903 -0.355327 -3.05839 -7.51724 -0.757946 -2.99533 -5.9515 -1.1981 -2.87477 
-3.99768 -1.74029 -2.71769 -1.44194 -2.32758 -2.60316 1.50739 -2.66555 -2.60389 
4.29628 -2.55751 -2.71221 6.5952 -2.11724 -2.86485 8.45769 -1.53755 -2.96701 
-9.82696 0.50362 -3.16475 -9.55654 1.03508 -3.23507 -9.1239 1.62125 -3.21331 
-8.36813 2.19148 -3.10359 -7.44032 2.61547 -2.95823 -6.58575 2.8732 -2.75766 
-5.71217 2.98535 -2.49538 -4.65716 2.88078 -2.25323 -3.50659 2.52731 -2.06069 
-9.61503 -0.730954 -2.99755 -9.0176 -1.54922 -2.94478 -8.21175 -2.35863 -2.82592 
-7.25759 -3.06823 -2.57325 -6.23649 -3.71927 -2.31323 -5.11548 -4.33018 -2.12408 
-3.94112 -4.83101 -1.90217 -2.84836 -5.25364 -1.68222 -1.86253 -5.68035 -1.57294 
-11.032 0.672844 -3.09631 -11.9765 1.44128 -3.04885 -12.856 2.34196 -2.89243 
-13.676 3.33914 -2.66716 -14.3951 4.32418 -2.40595 -14.8503 5.20634 -2.04812 
-14.9894 5.96955 -1.52501 -14.9253 6.62922 -0.883176 -14.7296 7.16057 -0.254191 
-10.9025 -0.137061 -2.99404 -11.6946 -0.356979 -2.90109 -12.4428 -0.65106 -2.78497 
-13.1244 -1.02878 -2.57332 -13.6745 -1.47319 -2.23583 -14.0958 -1.96398 -1.90107 
-14.4242 -2.51642 -1.62966 -14.6258 -3.08221 -1.28372 -14.6835 -3.54663 -0.780482 
9.61117 -0.695956 -2.91688 9.00541 -0.50701 -2.84231 8.17535 -0.280339 -2.74536 
7.13207 -0.0956395 -2.65278 5.92339 -0.105904 -2.50255 4.44356 -0.208034 -2.23339 
2.57857 -0.128004 -1.97574 0.573695 0.296213 -1.88025 -1.15006 1.06668 -1.89041 
9.43111 -1.61146 -2.99584 8.6476 -2.3835 -2.99139 7.65535 -3.18471 -2.91445 
6.46989 -3.93664 -2.77518 5.13281 -4.56817 -2.61685 3.73497 -5.06769 -2.42496 
2.40282 -5.45528 -2.16824 1.17836 -5.73448 -1.90366 0.0500315 -5.93109 -1.69419 
11.3858 -0.0414301 -2.80506 12.8447 1.03289 -2.5421 14.2737 2.27411 -2.20867 
15.5602 3.67652 -1.85613 16.7688 5.22417 -1.46837 17.8334 6.64095 -1.01005 
18.4569 7.61824 -0.48899 18.5601 8.19081 0.0728705 18.3321 8.44532 0.621469 
11.2249 -0.718416 -2.88303 12.4561 -0.552023 -2.76521 13.6809 -0.290362 -2.58552 
14.8221 0.101932 -2.27593 15.8032 0.380351 -1.87403 16.48 0.378044 -1.54394 
16.8076 0.180871 -1.28782 16.9376 -0.119448 -0.962876 16.943 -0.461364 -0.545223 
-8.10825 0.544877 3.44868 -6.63645 -0.0303759 3.55728 -5.04543 -0.772924 3.46707 
-3.29341 -1.58724 3.13433 -1.23419 -2.20646 2.80725 1.1248 -2.48927 2.59269 
3.49391 -2.49383 2.23775 5.65251 -2.26165 1.76657 7.62176 -1.78928 1.52673 
-8.96538 1.55386 3.44344 -8.45192 1.99284 3.42573 -7.89813 2.32132 3.25312 
-7.26087 2.58503 3.05059 -6.47944 2.75055 2.86698 -5.59999 2.73947 2.63206 
-4.72871 2.55985 2.32081 -3.86115 2.25556 1.98897 -2.95111 1.88937 1.691 
-9.04012 0.1631 3.17181 -8.51556 -0.729042 3.06275 -7.76404 -1.70738 3.01142 
-6.74417 -2.80677 3.01657 -5.57849 -3.87344 3.04857 -4.43759 -4.7982 3.07169 
-3.40693 -5.60146 3.01631 -2.52564 -6.21298 2.80772 -1.77469 -6.58704 2.46508 
-10.4157 1.87026 3.27882 -11.3747 2.74549 3.24384 -12.184 3.49532 3.07109 
-12.8628 4.15726 2.72101 -13.5218 4.89657 2.37394 -14.0683 5.67393 2.10608 
-14.3872 6.38147 1.73125 -14.546 6.98605 1.21826 -14.5676 7.38473 0.72034 
-10.4914 0.922637 3.04371 -11.5822 0.719759 2.76823 -12.6609 0.391323 2.51321 
-13.7074 -0.0696454 2.26982 -14.655 -0.697165 1.99754 -15.3526 -1.47512 1.68174 
-15.6343 -2.27678 1.31789 -15.4926 -2.98531 0.86859 -15.1022 -3.5282 0.331982 
8.7802 -0.945591 1.54064 7.92108 -0.769358 1.53013 6.90652 -0.660893 1.59071 
5.76567 -0.615588 1.56913 4.46668 -0.541451 1.48727 3.03323 -0.362514 1.54165 
1.59451 -0.0578976 1.65581 0.246735 0.369509 1.6489 -0.976488 0.909041 1.54995 
8.834 -1.78382 1.54762 8.07988 -2.45649 1.53025 7.2681 -3.15591 1.65982 
6.3871 -3.88272 1.89818 5.27379 -4.56347 2.04999 3.92177 -5.13954 2.0455 
2.57173 -5.63248 2.0287 1.3359 -6.07472 2.07601 0.124836 -6.47583 2.11658 
10.8587 -0.23151 1.79422 12.3198 0.80535 1.97204 13.7688 1.98329 2.15516 
15.0826 3.32443 2.39195 16.1201 4.65128 2.50604 16.8852 5.74207 2.35001 
17.4357 6.67981 2.09782 17.7744 7.55872 1.85749 17.9246 8.17118 1.52132 
10.8769 -0.766248 1.77798 12.287 -0.372441 1.86499 13.5724 -0.0745003 1.87303 
14.7377 0.085288 1.9113 15.7254 0.158059 1.86505 16.3712 0.163495 1.59087 
16.7089 0.0503178 1.23286 16.9018 -0.195265 0.870994 16.9456 -0.499635 0.411998 
-2.42365 2.27219 -1.64286 -2.44269 2.41534 -1.32201 -2.42034 2.48897 -0.97926 
-2.34275 2.56853 -0.643232 -2.27187 2.66907 -0.248353 -2.23874 2.68219 0.212712 
-2.20095 2.50102 0.646153 -2.14217 2.17446 0.983348 -2.08306 1.83675 1.23409 
-0.461344 1.00581 -1.67891 1.94917 0.538882 -1.51271 4.62653 0.93006 -1.47124 
7.37205 1.90045 -1.48029 10.0093 2.97856 -1.29973 12.3743 4.0846 -0.867361 
14.3923 5.30258 -0.35313 16.0033 6.54267 0.137763 17.1518 7.61092 0.613232 
-3.93395 3.45157 -1.88719 -5.16324 4.83195 -1.82896 -6.31834 5.86077 -1.72738 
-7.5676 6.51634 -1.52128 -8.8942 6.90578 -1.18328 -10.2203 7.15478 -0.875612 
-11.4628 7.3894 -0.626373 -12.5818 7.59399 -0.311904 -13.5786 7.65146 0.0245408 
-0.381741 0.950448 1.25772 1.58534 0.683559 0.979271 3.87694 0.833587 0.641477 
6.46072 1.39382 0.442722 9.0915 2.28714 0.513373 11.4883 3.3962 0.736713 
13.6044 4.69672 0.939925 15.434 6.13636 1.0657 16.8756 7.43741 1.11187 
-3.51295 2.63139 1.495 -4.86326 3.98785 1.60402 -6.11943 5.33161 1.76843 
-7.3866 6.42068 1.916 -8.67438 7.20544 1.94048 -9.95107 7.69752 1.75437 
-11.2238 7.92874 1.39435 -12.4383 7.96251 0.996742 -13.5114 7.82081 0.631223 
-0.985894 -6.42884 -1.3289 -1.02946 -6.75205 -1.02436 -1.11801 -7.05373 -0.68605 
-1.25018 -7.37306 -0.360829 -1.38092 -7.69949 0.083922 -1.49969 -7.88936 0.671581 
-1.59554 -7.81308 1.1819 -1.56926 -7.5232 1.53093 -1.36445 -7.16494 1.82147 
0.591371 -6.34195 -1.56071 2.32009 -6.42913 -1.57308 4.17032 -6.37998 -1.61557 
6.06944 -6.33718 -1.75307 8.06279 -6.05555 -1.84994 10.3018 -5.0889 -1.71176 
12.6361 -3.6778 -1.39274 14.5752 -2.44824 -1.01996 15.8888 -1.54933 -0.593847 
-2.4503 -6.01082 -1.38783 -3.99994 -5.97625 -1.26261 -5.61214 -5.98439 -1.18277 
-7.25849 -5.95001 -1.14325 -8.82703 -5.79815 -1.03822 -10.2543 -5.50328 -0.837223 
-11.553 -5.12701 -0.666507 -12.7156 -4.75953 -0.559002 -13.7414 -4.36809 -0.417132 
0.509292 -6.81708 1.78087 2.4148 -6.75536 1.49803 4.47993 -6.62173 1.20533 
6.51775 -6.36699 0.885663 8.59504 -5.83212 0.648331 10.8432 -4.88068 0.516239 
13.0205 -3.6694 0.35254 14.7363 -2.52379 0.144396 15.9215 -1.58661 -0.0140902 
-2.68512 -6.98027 2.23316 -4.29142 -7.07293 2.27102 -5.88444 -7.08346 2.17258 
-7.52901 -6.92151 1.99046 -9.20972 -6.54389 1.75236 -10.754 -6.07566 1.43001 
-12.0399 -5.59006 1.04889 -13.0948 -5.04294 0.650461 -13.9599 -4.45068 0.229471 
18.8363 8.7837 1.23919 19.7748 8.63028 1.34104 20.6179 7.79013 1.33987 
20.9653 6.58842 1.20683 20.6565 5.37108 0.942592 20.1205 4.13959 0.655906 
19.575 2.81927 0.455857 18.7718 1.48228 0.299936 17.745 0.251622 0.10384 
-15.3682 6.99364 0.164501 -16.2123 6.20466 0.0343521 -16.8422 5.11787 -0.0499284 
-17.2696 3.83737 -0.122474 -17.4754 2.54956 -0.28271 -17.3364 1.21572 -0.468467 
-16.8852 -0.293057 -0.52086 -16.2606 -1.78779 -0.440762 -15.5001 -2.98834 -0.322224 
-8.55809 0.0916761 -3.14793 -8.21324 0.575122 -3.21217 -7.13355 -0.358392 -3.0857 
-7.63808 1.13862 -3.16769 -6.66389 0.0702586 -3.12083 -5.40543 -0.904607 -2.94358 
-6.75351 1.64828 -3.04326 -5.86192 0.516945 -2.99006 -4.54912 -0.655813 -2.85999 
-2.98932 -1.61124 -2.715 -5.8303 1.89584 -2.88121 -4.8009 0.779252 -2.77449 
-3.28732 -0.491176 -2.58127 -1.51333 -1.52461 -2.5128 0.112032 -2.18491 -2.54493 
-4.92174 1.87402 -2.62402 -3.67438 0.736294 -2.54328 -1.87427 -0.468923 -2.32318 
0.162211 -1.4165 -2.26056 1.89776 -1.92219 -2.39816 3.21967 -2.24426 -2.57263 
-3.778 1.68507 -2.31433 -2.34728 0.541896 -2.26897 -0.389055 -0.478576 -2.16606 
1.7193 -1.18112 -2.18667 3.4889 -1.47843 -2.36806 4.78587 -1.64479 -2.57747 
5.78429 -1.87242 -2.74415 -2.43328 1.39101 -2.07126 -0.825812 0.373354 -2.02899 
1.1831 -0.36947 -2.04991 3.16826 -0.750568 -2.22006 4.79368 -0.836215 -2.4594 
6.04823 -0.908945 -2.65069 7.04657 -1.10598 -2.78933 7.84507 -1.32855 -2.89732 
-10.8352 1.30633 -3.18832 -11.7666 2.23442 -3.10316 -10.5465 1.9964 -3.2212 
-12.5468 3.21343 -2.88865 -11.3867 3.04253 -3.10057 -9.99366 2.67225 -3.14672 
-13.2256 4.18105 -2.57535 -12.0107 4.0208 -2.82408 -10.7351 3.75171 -2.99517 
-9.13165 3.22225 -2.98577 -13.7592 5.13459 -2.20202 -12.4634 4.9381 -2.39184 
-11.2155 4.74037 -2.67239 -9.82712 4.3403 -2.80257 -8.15011 3.65294 -2.77159 
-13.9949 6.01062 -1.75713 -12.7381 5.8462 -1.91263 -11.4151 5.62295 -2.17894 
-10.1573 5.38746 -2.4937 -8.70372 4.8614 -2.5704 -7.13974 4.01598 -2.5215 
-13.9653 6.71912 -1.19441 -12.8149 6.6229 -1.42759 -11.4911 6.37457 -1.64164 
-10.1688 6.15757 -2.0026 -8.84775 5.86519 -2.29794 -7.42531 5.21631 -2.32548 
-6.05388 4.18113 -2.28649 -13.8107 7.26137 -0.561464 -12.7467 7.18599 -0.883365 
-11.5285 6.95259 -1.12522 -10.1865 6.69445 -1.40735 -8.83 6.45424 -1.79451 
-7.48317 6.03151 -2.035 -6.19391 5.22034 -2.07789 -4.95389 3.98306 -2.08917 
-12.5697 7.90795 0.344387 -11.3682 8.0114 0.669688 -11.4516 7.77595 -0.0358277 
-10.0539 7.95674 1.0329 -10.1248 7.89207 0.231414 -10.2222 7.58797 -0.385799 
-8.76889 7.6535 1.38682 -8.76782 7.86156 0.560949 -8.83079 7.79158 -0.16408 
-8.92325 7.40679 -0.665024 -7.51959 7.01042 1.58364 -7.51471 7.47125 0.94518 
-7.47495 7.7204 0.155267 -7.53973 7.53798 -0.45618 -7.59447 7.00806 -0.96187 
-6.25037 5.99276 1.54203 -6.29221 6.6069 1.16947 -6.22933 7.06774 0.534073 
-6.20921 7.13596 -0.163312 -6.28742 6.74508 -0.723132 -6.32066 6.24639 -1.2423 
-4.96344 4.60656 1.3816 -5.02772 5.25851 1.12602 -5.02006 5.79005 0.708539 
[...]
POINT_DATA 1002
FIELD FieldData 4
_paraPhi 1 1002 double
6.2831853072 3.1415926536 6.2831853072 3.1415926536 4.7123889804 4.7123889804 1.5707963268 1.5707963268 3.6951670125 
5.7296109483 2.5880182947 0.5535743589 6.2831853072 6.2831853072 6.2831853072 6.2831853072 3.1415926536 3.1415926536 
3.1415926536 3.1415926536 3.1415926536 6.1053039672 5.898798347 5.6768734901 5.4599499503 5.2659633393 5.1032165617 
4.9713148346 4.8656852733 4.7809517865 0.17788134 0.38438696014 0.60631181711 0.82323535693 1.0172219679 1.1799687454 
1.3118704726 1.4175000338 1.5022335207 6.1892828907 6.1070320098 6.035312792 5.9728339911 5.9183214791 5.8706119594 
5.8286879411 5.7916808611 5.7588591896 0.093902416448 0.17615329733 0.2478725152 0.31035131605 0.36486382811 0.41257334776 
0.45449736604 0.4915044461 0.52432611754 3.3194739936 3.5259796137 3.7479044707 3.9648280105 4.1588146215 4.321561399 
4.4534631262 4.5590926874 4.6438261743 2.9637113136 2.7572056934 2.5352808365 2.3183572967 2.1243706857 1.9616239082 
1.829722181 1.7240926197 1.6393591329 3.23549507 3.3177459509 3.3894651688 3.4519439696 3.5064564817 3.5541660013 
3.5960900196 3.6330970997 3.6659187711 3.0476902371 2.9654393563 2.8937201384 2.8312413375 2.7767288255 2.7290193058 
2.6870952876 2.6500882075 2.617266536 6.2831853072 6.2831853072 6.2831853072 6.2831853072 3.1415926536 3.1415926536 
3.1415926536 3.1415926536 3.1415926536 6.1053039672 5.898798347 5.6768734901 5.4599499503 5.2659633393 5.1032165617 
4.9713148346 4.8656852733 4.7809517865 0.17788134 0.38438696014 0.60631181711 0.82323535693 1.0172219679 1.1799687454 
1.3118704726 1.4175000338 1.5022335207 6.1892828907 6.1070320098 6.035312792 5.9728339911 5.9183214791 5.8706119594 
5.8286879411 5.7916808611 5.7588591896 0.093902416448 0.17615329733 0.2478725152 0.31035131605 0.36486382811 0.41257334776 
0.45449736604 0.4915044461 0.52432611754 3.3194739936 3.5259796137 3.7479044707 3.9648280105 4.1588146215 4.321561399 
4.4534631262 4.5590926874 4.6438261743 2.9637113136 2.7572056934 2.5352808365 2.3183572967 2.1243706857 1.9616239082 
1.829722181 1.7240926197 1.6393591329 3.23549507 3.3177459509 3.3894651688 3.4519439696 3.5064564817 3.5541660013 
3.5960900196 3.6330970997 3.6659187711 3.0476902371 2.9654393563 2.8937201384 2.8312413375 2.7767288255 2.7290193058 
2.6870952876 2.6500882075 2.617266536 4.7123889804 4.7123889804 4.7123889804 4.7123889804 4.7123889804 4.7123889804 
4.7123889804 4.7123889804 4.7123889804 4.6087898617 4.4991390697 4.3857031936 4.2712800401 4.1588146215 4.0509635631 
3.94975894 3.8564636551 3.7716124825 4.8159880991 4.9256388911 5.0390747672 5.1534979207 5.2659633393 5.3738143976 
5.4750190208 5.5683143056 5.6531654782 4.6087898617 4.4991390697 4.3857031936 4.2712800401 4.1588146215 4.0509635631 
3.94975894 3.8564636551 3.7716124825 4.8159880991 4.9256388911 5.0390747672 5.1534979207 5.2659633393 5.3738143976 
5.4750190208 5.5683143056 5.6531654782 1.5707963268 1.5707963268 1.5707963268 1.5707963268 1.5707963268 1.5707963268 
1.5707963268 1.5707963268 1.5707963268 1.6743954455 1.7840462375 1.8974821136 2.0119052671 2.1243706857 2.232221744 
2.3334263672 2.426721652 2.5115728246 1.4671972081 1.3575464161 1.24411054 1.1296873865 1.0172219679 0.90937090954 
0.80816628637 0.71487100155 0.63001982895 1.6743954455 1.7840462375 1.8974821136 2.0119052671 2.1243706857 2.232221744 
2.3334263672 2.426721652 2.5115728246 1.4671972081 1.3575464161 1.24411054 1.1296873865 1.0172219679 0.90937090954 
0.80816628637 0.71487100155 0.63001982895 3.6007720849 3.4966939854 3.3839471039 3.2645756454 3.1415926536 3.0186096618 
2.8992382033 2.7864913217 2.6824132222 5.8240058758 5.9280839753 6.0408308569 6.1602023154 6.2831853072 0.12298299178 
0.2423544503 0.35510133185 0.45917943135 6.0560271438 5.7885595667 5.9702140275 5.5125918794 5.6029703303 5.7885595667 
5.2659633393 5.2659633393 5.2659633393 5.2659633393 5.0674903122 5.0120975802 4.9155579264 4.7123889804 4.1588146215 
4.9155579264 4.8353719722 4.7123889804 4.5092200343 4.1588146215 3.6362183941 4.8004512023 4.7123889804 4.5894059886 
4.4126803806 4.1588146215 3.8218076305 3.4545639333 4.7123889804 4.6243267584 4.5092200343 4.3572876485 4.1588146215 
3.9121860814 3.6362183941 3.368750817 6.0174235957 5.9434319871 5.8263323547 5.8809213739 5.7674481418 5.6279784266 
5.8278025282 5.718968232 5.5891129425 5.4372443565 5.7823484065 5.678536687 5.5575666702 5.4192596322 5.2659633393 
5.743164462 5.6444075337 5.5314983644 5.4046708639 5.2659633393 5.1195510325 5.7091357773 5.6152775188 5.5096229709 
5.3926039573 5.2659633393 5.1329233157 4.9978930058 5.6793730533 5.5901633916 5.4910209005 5.3824597928 5.2659633393 
5.1440684722 5.0201624502 4.8979782167 5.5683143056 5.4750190208 5.4750190208 5.3738143976 5.3738143976 5.3738143976 
5.2659633393 5.2659633393 5.2659633393 5.2659633393 5.1534979207 5.1534979207 5.1534979207 5.1534979207 5.1534979207 
5.0390747672 5.0390747672 5.0390747672 5.0390747672 5.0390747672 5.0390747672 4.9256388911 4.9256388911 4.9256388911 
4.9256388911 4.9256388911 4.9256388911 4.9256388911 4.8159880991 4.8159880991 4.8159880991 4.8159880991 4.8159880991 
4.8159880991 4.8159880991 4.8159880991 4.6087898617 4.6087898617 4.4991390697 4.6087898617 4.4991390697 4.3857031936 
4.6087898617 4.4991390697 4.3857031936 4.2712800401 4.6087898617 4.4991390697 4.3857031936 4.2712800401 4.1588146215 
4.6087898617 4.4991390697 4.3857031936 4.2712800401 4.1588146215 4.0509635631 4.6087898617 4.4991390697 4.3857031936 
4.2712800401 4.1588146215 4.0509635631 3.94975894 4.6087898617 4.4991390697 4.3857031936 4.2712800401 4.1588146215 
4.0509635631 3.94975894 3.8564636551 4.526799744 4.4046155105 4.426884955 4.2807094886 4.2918546451 4.3052269283 
4.1588146215 4.1588146215 4.1588146215 4.1588146215 4.042318168 4.0321740035 4.0201070968 4.0055183285 3.9875336042 
3.9337570603 3.9151549899 3.8932795963 3.8672112905 3.8356650183 3.7967995342 3.8346145692 3.809500442 3.7803704271 
3.7462412737 3.7058097288 3.657329819 3.5984456061 3.7454049075 3.7156421835 3.6816134988 3.6424295543 3.5969754326 
3.5438565869 3.4813459737 3.4073543651 3.5642842451 3.4524645613 3.5233842518 3.3320300872 3.403123212 3.4773852225 
3.20576226 3.2746326772 3.348015857 3.4255060145 3.0774230472 3.1415926536 3.2112816139 3.2864685043 3.3668817272 
2.95115522 3.00855263 3.0719036933 3.1415926536 3.2178377658 3.3005964304 2.8307207459 2.8800620952 2.9351694502 
2.9967168029 3.0653475414 3.1415926536 3.225752376 2.718901062 2.7598010554 2.8058000847 2.8576792927 2.91630358 
2.9825888767 3.0574329311 3.1415926536 3.5642842451 3.5233842518 3.4524645613 3.4773852225 3.403123212 3.3320300872 
3.4255060145 3.348015857 3.2746326772 3.20576226 3.3668817272 3.2864685043 3.2112816139 3.1415926536 3.0774230472 
3.3005964304 3.2178377658 3.1415926536 3.0719036933 3.00855263 2.95115522 3.225752376 3.1415926536 3.0653475414 
2.9967168029 2.9351694502 2.8800620952 2.8307207459 3.1415926536 3.0574329311 2.9825888767 2.91630358 2.8576792927 
2.8058000847 2.7598010554 2.718901062 4.526799744 4.426884955 4.4046155105 4.3052269283 4.2918546451 4.2807094886 
4.1588146215 4.1588146215 4.1588146215 4.1588146215 3.9875336042 4.0055183285 4.0201070968 4.0321740035 4.042318168 
3.7967995342 3.8356650183 3.8672112905 3.8932795963 3.9151549899 3.9337570603 3.5984456061 3.657329819 3.7058097288 
3.7462412737 3.7803704271 3.809500442 3.8346145692 3.4073543651 3.4813459737 3.5438565869 3.5969754326 3.6424295543 
3.6816134988 3.7156421835 3.7454049075 4.7123889804 4.8004512023 4.6243267584 4.9155579264 4.7123889804 4.5092200343 
5.0674903122 4.8353719722 4.5894059886 4.3572876485 5.2659633393 5.0120975802 4.7123889804 4.4126803806 4.1588146215 
5.5125918794 5.2659633393 4.9155579264 4.5092200343 4.1588146215 3.9121860814 5.7885595667 5.6029703303 5.2659633393 
4.7123889804 4.1588146215 3.8218076305 3.6362183941 6.0560271438 5.9702140275 5.7885595667 5.2659633393 4.1588146215 
3.6362183941 3.4545639333 3.368750817 0.22715816343 0.49462574053 0.3129712797 0.77059342779 0.68021497688 0.49462574053 
1.0172219679 1.0172219679 1.0172219679 1.0172219679 1.2156949949 1.271087727 1.3676273807 1.5707963268 2.1243706857 
1.3676273807 1.447813335 1.5707963268 1.7739652728 2.1243706857 2.6469669131 1.4827341049 1.5707963268 1.6937793186 
1.8705049266 2.1243706857 2.4613776767 2.8286213739 1.5707963268 1.6588585487 1.7739652728 1.9258976586 2.1243706857 
2.3709992258 2.6469669131 2.9144344902 1.7563855631 1.8785697967 1.8563003522 2.0024758186 1.9913306621 1.9779583789 
2.1243706857 2.1243706857 2.1243706857 2.1243706857 2.2408671392 2.2510113037 2.2630782103 2.2776669786 2.295651703 
2.3494282469 2.3680303173 2.3899057108 2.4159740166 2.4475202889 2.486385773 2.448570738 2.4736848652 2.5028148801 
2.5369440334 2.5773755784 2.6258554882 2.6847397011 2.5377803997 2.5675431237 2.6015718084 2.6407557529 2.6862098746 
2.7393287203 2.8018393335 2.8758309421 1.6743954455 1.6743954455 1.7840462375 1.6743954455 1.7840462375 1.8974821136 
1.6743954455 1.7840462375 1.8974821136 2.0119052671 1.6743954455 1.7840462375 1.8974821136 2.0119052671 2.1243706857 
1.6743954455 1.7840462375 1.8974821136 2.0119052671 2.1243706857 2.232221744 1.6743954455 1.7840462375 1.8974821136 
2.0119052671 2.1243706857 2.232221744 2.3334263672 1.6743954455 1.7840462375 1.8974821136 2.0119052671 2.1243706857 
2.232221744 2.3334263672 2.426721652 1.4671972081 1.3575464161 1.4671972081 1.24411054 1.3575464161 1.4671972081 
1.1296873865 1.24411054 1.3575464161 1.4671972081 1.0172219679 1.1296873865 1.24411054 1.3575464161 1.4671972081 
0.90937090954 1.0172219679 1.1296873865 1.24411054 1.3575464161 1.4671972081 0.80816628637 0.90937090954 1.0172219679 
1.1296873865 1.24411054 1.3575464161 1.4671972081 0.71487100155 0.80816628637 0.90937090954 1.0172219679 1.1296873865 
1.24411054 1.3575464161 1.4671972081 0.60381225391 0.57404952988 0.69302191562 0.54002084522 0.66790778838 0.79216440667 
0.50083690068 0.63877777351 0.77356233629 0.90072551443 0.45538277901 0.60464862014 0.75168694275 0.89058134991 1.0172219679 
0.40226393329 0.56421707518 0.72561863695 0.87851444325 1.0172219679 1.139116835 0.33975332011 0.51573716537 0.69407236469 
0.86392567495 1.0172219679 1.1502619915 1.2630228569 0.26576171152 0.45685295248 0.6552068806 0.84594095064 1.0172219679 
1.1636342747 1.2852923014 1.3852070904 0.22715816343 0.3129712797 0.49462574053 0.49462574053 0.68021497688 0.77059342779 
1.0172219679 1.0172219679 1.0172219679 1.0172219679 2.1243706857 1.5707963268 1.3676273807 1.271087727 1.2156949949 
2.6469669131 2.1243706857 1.7739652728 1.5707963268 1.447813335 1.3676273807 2.8286213739 2.4613776767 2.1243706857 
1.8705049266 1.6937793186 1.5707963268 1.4827341049 2.9144344902 2.6469669131 2.3709992258 2.1243706857 1.9258976586 
1.7739652728 1.6588585487 1.5707963268 1.7563855631 1.8563003522 1.8785697967 1.9779583789 1.9913306621 2.0024758186 
2.1243706857 2.1243706857 2.1243706857 2.1243706857 2.295651703 2.2776669786 2.2630782103 2.2510113037 2.2408671392 
2.486385773 2.4475202889 2.4159740166 2.3899057108 2.3680303173 2.3494282469 2.6847397011 2.6258554882 2.5773755784 
2.5369440334 2.5028148801 2.4736848652 2.448570738 2.8758309421 2.8018393335 2.7393287203 2.6862098746 2.6407557529 
2.6015718084 2.5675431237 2.5377803997 5.8604937156 5.901393709 5.9723133995 5.9473927383 6.0216547488 6.0927478736 
5.9992719463 6.0767621038 6.1501452836 6.2190157008 6.0578962336 6.1383094565 6.2134963469 0 0.064169606361 
6.1241815303 6.206940195 6.2831853072 0.069688960264 0.13304002361 0.19043743361 6.1990255847 0 0.07624511221 
0.14487585072 0.20642320337 0.26153055843 0.3108719077 0 0.084159722458 0.15900377685 0.22528907359 0.28391336087 
0.3357925689 0.38179159818 0.42269159155 5.8604937156 5.9723133995 5.901393709 6.0927478736 6.0216547488 5.9473927383 
6.2190157008 6.1501452836 6.0767621038 5.9992719463 0.064169606361 0 6.2134963469 6.1383094565 6.0578962336 
0.19043743361 0.13304002361 0.069688960264 6.2831853072 6.206940195 6.1241815303 0.3108719077 0.26153055843 0.20642320337 
0.14487585072 0.07624511221 6.2831853072 6.1990255847 0.42269159155 0.38179159818 0.3357925689 0.28391336087 0.22528907359 
0.15900377685 0.084159722458 0 5.6793730533 5.7091357773 5.5901633916 5.743164462 5.6152775188 5.4910209005 
5.7823484065 5.6444075337 5.5096229709 5.3824597928 5.8278025282 5.678536687 5.5314983644 5.3926039573 5.2659633393 
5.8809213739 5.718968232 5.5575666702 5.4046708639 5.2659633393 5.1440684722 5.9434319871 5.7674481418 5.5891129425 
5.4192596322 5.2659633393 5.1329233157 5.0201624502 6.0174235957 5.8263323547 5.6279784266 5.4372443565 5.2659633393 
5.1195510325 4.9978930058 4.8979782167 1.3852070904 1.2852923014 1.2630228569 1.1636342747 1.1502619915 1.139116835 
1.0172219679 1.0172219679 1.0172219679 1.0172219679 0.84594095064 0.86392567495 0.87851444325 0.89058134991 0.90072551443 
0.6552068806 0.69407236469 0.72561863695 0.75168694275 0.77356233629 0.79216440667 0.45685295248 0.51573716537 0.56421707518 
0.60464862014 0.63877777351 0.66790778838 0.69302191562 0.26576171152 0.33975332011 0.40226393329 0.45538277901 0.50083690068 
0.54002084522 0.57404952988 0.60381225391 
_paraPhiHalf 1 1002 double
0 3.1415926536 0 3.1415926536 1.5707963268 1.5707963268 1.5707963268 1.5707963268 2.5880182947 
0.5535743589 2.5880182947 0.5535743589 0 0 0 0 3.1415926536 3.1415926536 
3.1415926536 3.1415926536 3.1415926536 0.17788134 0.38438696014 0.60631181711 0.82323535693 1.0172219679 1.1799687454 
1.3118704726 1.4175000338 1.5022335207 0.17788134 0.38438696014 0.60631181711 0.82323535693 1.0172219679 1.1799687454 
1.3118704726 1.4175000338 1.5022335207 0.093902416448 0.17615329733 0.2478725152 0.31035131605 0.36486382811 0.41257334776 
0.45449736604 0.4915044461 0.52432611754 0.093902416448 0.17615329733 0.2478725152 0.31035131605 0.36486382811 0.41257334776 
0.45449736604 0.4915044461 0.52432611754 2.9637113136 2.7572056934 2.5352808365 2.3183572967 2.1243706857 1.9616239082 
1.829722181 1.7240926197 1.6393591329 2.9637113136 2.7572056934 2.5352808365 2.3183572967 2.1243706857 1.9616239082 
1.829722181 1.7240926197 1.6393591329 3.0476902371 2.9654393563 2.8937201384 2.8312413375 2.7767288255 2.7290193058 
2.6870952876 2.6500882075 2.617266536 3.0476902371 2.9654393563 2.8937201384 2.8312413375 2.7767288255 2.7290193058 
2.6870952876 2.6500882075 2.617266536 0 0 0 0 3.1415926536 3.1415926536 
3.1415926536 3.1415926536 3.1415926536 0.17788134 0.38438696014 0.60631181711 0.82323535693 1.0172219679 1.1799687454 
1.3118704726 1.4175000338 1.5022335207 0.17788134 0.38438696014 0.60631181711 0.82323535693 1.0172219679 1.1799687454 
1.3118704726 1.4175000338 1.5022335207 0.093902416448 0.17615329733 0.2478725152 0.31035131605 0.36486382811 0.41257334776 
0.45449736604 0.4915044461 0.52432611754 0.093902416448 0.17615329733 0.2478725152 0.31035131605 0.36486382811 0.41257334776 
0.45449736604 0.4915044461 0.52432611754 2.9637113136 2.7572056934 2.5352808365 2.3183572967 2.1243706857 1.9616239082 
1.829722181 1.7240926197 1.6393591329 2.9637113136 2.7572056934 2.5352808365 2.3183572967 2.1243706857 1.9616239082 
1.829722181 1.7240926197 1.6393591329 3.0476902371 2.9654393563 2.8937201384 2.8312413375 2.7767288255 2.7290193058 
2.6870952876 2.6500882075 2.617266536 3.0476902371 2.9654393563 2.8937201384 2.8312413375 2.7767288255 2.7290193058 
2.6870952876 2.6500882075 2.617266536 1.5707963268 1.5707963268 1.5707963268 1.5707963268 1.5707963268 1.5707963268 
1.5707963268 1.5707963268 1.5707963268 1.6743954455 1.7840462375 1.8974821136 2.0119052671 2.1243706857 2.232221744 
2.3334263672 2.426721652 2.5115728246 1.4671972081 1.3575464161 1.24411054 1.1296873865 1.0172219679 0.90937090954 
0.80816628637 0.71487100155 0.63001982895 1.6743954455 1.7840462375 1.8974821136 2.0119052671 2.1243706857 2.232221744 
2.3334263672 2.426721652 2.5115728246 1.4671972081 1.3575464161 1.24411054 1.1296873865 1.0172219679 0.90937090954 
0.80816628637 0.71487100155 0.63001982895 1.5707963268 1.5707963268 1.5707963268 1.5707963268 1.5707963268 1.5707963268 
1.5707963268 1.5707963268 1.5707963268 1.6743954455 1.7840462375 1.8974821136 2.0119052671 2.1243706857 2.232221744 
2.3334263672 2.426721652 2.5115728246 1.4671972081 1.3575464161 1.24411054 1.1296873865 1.0172219679 0.90937090954 
0.80816628637 0.71487100155 0.63001982895 1.6743954455 1.7840462375 1.8974821136 2.0119052671 2.1243706857 2.232221744 
2.3334263672 2.426721652 2.5115728246 1.4671972081 1.3575464161 1.24411054 1.1296873865 1.0172219679 0.90937090954 
0.80816628637 0.71487100155 0.63001982895 2.6824132222 2.7864913217 2.8992382033 3.0186096618 3.1415926536 3.0186096618 
2.8992382033 2.7864913217 2.6824132222 0.45917943135 0.35510133185 0.2423544503 0.12298299178 0 0.12298299178 
0.2423544503 0.35510133185 0.45917943135 0.22715816343 0.49462574053 0.3129712797 0.77059342779 0.68021497688 0.49462574053 
1.0172219679 1.0172219679 1.0172219679 1.0172219679 1.2156949949 1.271087727 1.3676273807 1.5707963268 2.1243706857 
1.3676273807 1.447813335 1.5707963268 1.7739652728 2.1243706857 2.6469669131 1.4827341049 1.5707963268 1.6937793186 
1.8705049266 2.1243706857 2.4613776767 2.8286213739 1.5707963268 1.6588585487 1.7739652728 1.9258976586 2.1243706857 
2.3709992258 2.6469669131 2.9144344902 0.26576171152 0.33975332011 0.45685295248 0.40226393329 0.51573716537 0.6552068806 
0.45538277901 0.56421707518 0.69407236469 0.84594095064 0.50083690068 0.60464862014 0.72561863695 0.86392567495 1.0172219679 
0.54002084522 0.63877777351 0.75168694275 0.87851444325 1.0172219679 1.1636342747 0.57404952988 0.66790778838 0.77356233629 
0.89058134991 1.0172219679 1.1502619915 1.2852923014 0.60381225391 0.69302191562 0.79216440667 0.90072551443 1.0172219679 
1.139116835 1.2630228569 1.3852070904 0.71487100155 0.80816628637 0.80816628637 0.90937090954 0.90937090954 0.90937090954 
1.0172219679 1.0172219679 1.0172219679 1.0172219679 1.1296873865 1.1296873865 1.1296873865 1.1296873865 1.1296873865 
1.24411054 1.24411054 1.24411054 1.24411054 1.24411054 1.24411054 1.3575464161 1.3575464161 1.3575464161 
1.3575464161 1.3575464161 1.3575464161 1.3575464161 1.4671972081 1.4671972081 1.4671972081 1.4671972081 1.4671972081 
1.4671972081 1.4671972081 1.4671972081 1.6743954455 1.6743954455 1.7840462375 1.6743954455 1.7840462375 1.8974821136 
1.6743954455 1.7840462375 1.8974821136 2.0119052671 1.6743954455 1.7840462375 1.8974821136 2.0119052671 2.1243706857 
1.6743954455 1.7840462375 1.8974821136 2.0119052671 2.1243706857 2.232221744 1.6743954455 1.7840462375 1.8974821136 
2.0119052671 2.1243706857 2.232221744 2.3334263672 1.6743954455 1.7840462375 1.8974821136 2.0119052671 2.1243706857 
2.232221744 2.3334263672 2.426721652 1.7563855631 1.8785697967 1.8563003522 2.0024758186 1.9913306621 1.9779583789 
2.1243706857 2.1243706857 2.1243706857 2.1243706857 2.2408671392 2.2510113037 2.2630782103 2.2776669786 2.295651703 
2.3494282469 2.3680303173 2.3899057108 2.4159740166 2.4475202889 2.486385773 2.448570738 2.4736848652 2.5028148801 
2.5369440334 2.5773755784 2.6258554882 2.6847397011 2.5377803997 2.5675431237 2.6015718084 2.6407557529 2.6862098746 
2.7393287203 2.8018393335 2.8758309421 2.718901062 2.8307207459 2.7598010554 2.95115522 2.8800620952 2.8058000847 
3.0774230472 3.00855263 2.9351694502 2.8576792927 3.0774230472 3.1415926536 3.0719036933 2.9967168029 2.91630358 
2.95115522 3.00855263 3.0719036933 3.1415926536 3.0653475414 2.9825888767 2.8307207459 2.8800620952 2.9351694502 
2.9967168029 3.0653475414 3.1415926536 3.0574329311 2.718901062 2.7598010554 2.8058000847 2.8576792927 2.91630358 
2.9825888767 3.0574329311 3.1415926536 2.718901062 2.7598010554 2.8307207459 2.8058000847 2.8800620952 2.95115522 
2.8576792927 2.9351694502 3.00855263 3.0774230472 2.91630358 2.9967168029 3.0719036933 3.1415926536 3.0774230472 
2.9825888767 3.0653475414 3.1415926536 3.0719036933 3.00855263 2.95115522 3.0574329311 3.1415926536 3.0653475414 