# vtk DataFile Version 5.1
vtk output
ASCII
DATASET POLYDATA
POINTS 1002 float
-10.4364 0.265988 -1.90211 -22.4484 -16.753 -5.7908 -9.04618 -3.0541 4.03977 
-21.0665 -17.608 -1.13733 -12.5551 -7.30341 -2.99669 -12.6284 -8.86186 0.164279 
-20.2753 -4.82436 -0.507804 -20.3798 -6.02639 3.28741 -19.5048 -28.7432 -7.3312 
-0.746219 -0.566849 0.206662 -25.6172 -23.8745 -4.77218 -10.6739 5.09757 3.26866 
-11.3521 -0.541463 -2.05574 -12.4431 -1.51158 -2.19441 -13.6718 -2.72349 -2.26926 
-15.1058 -4.26728 -2.33652 -16.882 -6.18627 -2.58912 -18.7706 -8.41508 -3.11575 
-20.2964 -10.7665 -3.81589 -21.3256 -13.0052 -4.5647 -22.006 -14.9951 -5.25086 
-10.1513 -0.198546 -2.15728 -9.87598 -0.745636 -2.42342 -9.69079 -1.36448 -2.71917 
-9.65242 -2.09159 -3.0169 -9.63458 -2.94312 -3.25348 -9.58928 -3.87432 -3.39818 
-9.8257 -4.84659 -3.44021 -10.556 -5.78496 -3.36339 -11.5648 -6.59635 -3.19173 
-11.27 0.168089 -1.71595 -12.2158 -0.0472983 -1.49754 -13.3001 -0.37042 -1.28724 
-14.4353 -0.820838 -1.10836 -15.5328 -1.42367 -0.946943 -16.6193 -2.10913 -0.800169 
-17.663 -2.81187 -0.67528 -18.595 -3.52793 -0.576902 -19.4554 -4.21501 -0.521265 
-9.37205 0.746531 -1.90912 -8.17036 1.21603 -1.907 -6.84593 1.63456 -1.87862 
-5.46241 1.88496 -1.79758 -4.12034 1.89371 -1.66016 -2.96326 1.69901 -1.46053 
-2.06482 1.31341 -1.13811 -1.37899 0.739549 -0.6819 -0.913812 0.0759802 -0.201472 
-10.1248 1.00699 -1.62757 -9.86781 1.76154 -1.29953 -9.66536 2.48791 -0.915954 
-9.54895 3.2049 -0.456302 -9.5504 3.85818 0.113999 -9.63381 4.31296 0.755791 
-9.78839 4.65075 1.38907 -10.0624 4.988 2.01999 -10.4044 5.17959 2.66682 
-22.0061 -16.4901 -5.77455 -21.4451 -16.0961 -5.64771 -20.7249 -15.4879 -5.44527 
-19.927 -14.5903 -5.17216 -19.1633 -13.4959 -4.75805 -18.3103 -12.2651 -4.21788 
-17.1303 -10.7914 -3.68962 -15.6376 -9.21984 -3.28542 -14.0553 -7.98215 -3.05611 
-22.6291 -15.851 -5.41039 -22.7533 -14.7733 -4.92741 -22.7301 -13.4935 -4.39193 
-22.5229 -12.0616 -3.80356 -22.2193 -10.6175 -3.14309 -21.8753 -9.25393 -2.48823 
-21.4561 -7.96093 -1.91169 -20.9982 -6.75352 -1.39451 -20.5964 -5.69989 -0.923415 
-22.4926 -18.3878 -6.25541 -22.4349 -20.1741 -6.71957 -22.2844 -21.9753 -7.26615 
-22.0493 -23.7054 -7.82164 -21.718 -25.3941 -8.16898 -21.2519 -26.9396 -8.36727 
-20.6485 -28.1215 -8.57869 -20.0492 -28.8364 -8.57009 -19.6512 -29.0424 -8.0986 
-22.8959 -17.941 -6.02116 -23.3344 -19.1603 -6.22581 -23.8032 -20.3454 -6.44162 
-24.2737 -21.4147 -6.59136 -24.6829 -22.3157 -6.60464 -25.0537 -23.0922 -6.53822 
-25.3903 -23.7707 -6.36476 -25.5999 -24.2075 -5.97121 -25.6516 -24.2373 -5.39406 
-9.99519 -3.80354 3.94592 -11.1874 -4.64547 3.79131 -12.6685 -5.62122 3.53738 
-14.4061 -6.79154 3.0879 -16.1979 -8.23332 2.44563 -17.7482 -9.99026 1.71029 
-18.9417 -11.974 0.928161 -19.8552 -13.9857 0.154702 -20.5536 -15.8767 -0.534457 
-8.91726 -3.55144 3.70597 -8.83632 -4.16513 3.39589 -8.8366 -4.82059 3.05356 
-8.94305 -5.45422 2.61505 -9.21279 -6.0845 2.1507 -9.6924 -6.70264 1.72953 
-10.3311 -7.26971 1.30081 -11.0537 -7.80783 0.867708 -11.8319 -8.34132 0.494173 
-9.77218 -3.10509 4.34382 -10.7054 -3.24064 4.57767 -11.9308 -3.45461 4.67617 
-13.3733 -3.75832 4.6998 -14.855 -4.10513 4.68298 -16.2467 -4.44693 4.53008 
-17.5092 -4.83526 4.23506 -18.6447 -5.27426 3.92365 -19.6189 -5.67856 3.62922 
-8.07191 -2.62201 3.86381 -7.00059 -2.22095 3.65699 -5.87356 -1.83748 3.41836 
-4.78742 -1.45936 3.10461 -3.78501 -1.13194 2.72247 -2.85386 -0.893154 2.31141 
-1.99604 -0.722789 1.84406 -1.28271 -0.613785 1.30979 -0.844788 -0.571456 0.755809 
-8.6163 -2.28964 4.2714 -8.18164 -1.37039 4.43139 -7.77419 -0.262121 4.53315 
-7.56525 0.996654 4.62656 -7.67931 2.29233 4.61638 -8.02104 3.41545 4.44603 
-8.5315 4.21768 4.25466 -9.25249 4.74969 4.05285 -10.0463 5.05776 3.71708 
-20.569 -17.2151 -1.0636 -20.0158 -16.6392 -0.974277 -19.3881 -15.8748 -0.85899 
-18.6741 -14.9363 -0.679402 -17.8799 -13.8579 -0.42736 -17.0133 -12.6876 -0.17085 
-16.0816 -11.4821 0.021744 -15.045 -10.368 0.144386 -13.869 -9.48611 0.197706 
-21.2544 -16.8437 -0.803559 -21.3943 -15.9593 -0.389631 -21.4694 -14.9026 0.044852 
-21.4999 -13.6525 0.476367 -21.5162 -12.3251 0.998966 -21.4696 -11.0216 1.62987 
-21.2821 -9.6811 2.21291 -20.9883 -8.31452 2.65728 -20.6778 -7.07487 3.00451 
-21.1711 -19.1658 -1.68573 -21.2042 -20.8539 -2.26994 -21.1568 -22.528 -2.85305 
-20.9825 -24.1454 -3.39571 -20.7021 -25.6834 -3.96882 -20.4335 -26.9314 -4.63722 
-20.1845 -27.8133 -5.33366 -19.8825 -28.4656 -6.02865 -19.6075 -28.8272 -6.72903 
-21.6331 -18.8513 -1.55139 -22.2058 -20.1589 -1.96127 -22.7788 -21.4873 -2.28809 
-23.3387 -22.6391 -2.58406 -23.8456 -23.4207 -2.9808 -24.3 -23.8869 -3.41249 
-24.7613 -24.1781 -3.74148 -25.202 -24.314 -4.03926 -25.5006 -24.2374 -4.40335 
-12.1969 -7.49333 -2.87706 -11.8144 -7.71046 -2.72157 -11.5817 -7.93872 -2.50883 
-11.5401 -8.21612 -2.23853 -11.5649 -8.50857 -1.91046 -11.6468 -8.67302 -1.49786 
-11.8465 -8.71464 -1.00824 -12.1049 -8.76464 -0.524711 -12.3619 -8.83422 -0.129275 
-14.4337 -8.60324 -2.92063 -16.1385 -10.7046 -3.21755 -17.3038 -13.3703 -3.93344 
-17.9933 -16.1639 -4.81285 -18.5707 -18.9454 -5.57054 -19.1528 -21.5956 -6.1379 
-19.5412 -23.8695 -6.57818 -19.6213 -25.7993 -6.95031 -19.5351 -27.4726 -7.23063 
-10.5271 -6.72137 -3.18673 -8.6248 -6.39995 -3.35253 -6.93492 -5.84436 -3.25955 
-5.49602 -5.02343 -2.85841 -4.37141 -4.24463 -2.31994 -3.39268 -3.47502 -1.84286 
-2.40185 -2.62865 -1.42315 -1.54514 -1.85669 -0.929043 -0.98373 -1.1946 -0.350552 
-14.1737 -9.92868 -0.21391 -15.5503 -11.5728 -0.840532 -16.587 -13.7452 -1.65594 
-17.3477 -16.1385 -2.4861 -18.0094 -18.5362 -3.29224 -18.6153 -20.9323 -4.11336 
-19.0819 -23.279 -4.89721 -19.3493 -25.4595 -5.66337 -19.4509 -27.3346 -6.49192 
-10.779 -8.16113 0.233678 -8.82905 -7.65712 0.248138 -6.99654 -7.19768 0.310545 
-5.3273 -6.68429 0.428536 -3.8716 -6.05541 0.496607 -2.80346 -5.17623 0.457937 
-2.07747 -4.01332 0.367874 -1.45911 -2.76362 0.293416 -0.957188 -1.60805 0.24742 
-20.5754 -4.68134 -0.244421 -20.8035 -4.56446 0.0994365 -20.9529 -4.46945 0.581109 
-21.1158 -4.32563 1.18372 -21.2275 -4.19036 1.77526 -21.1078 -4.27544 2.23637 
-20.8499 -4.63857 2.58939 -20.6709 -5.12685 2.90012 -20.5549 -5.60399 3.14921 
-21.2869 -5.97921 -0.775737 -22.3111 -7.36444 -1.11188 -23.2401 -9.02094 -1.52798 
-24.1364 -10.8306 -2.00117 -25.0312 -12.6064 -2.4784 -25.5969 -14.5388 -2.97246 
-25.6512 -17.0054 -3.55391 -25.5508 -19.7779 -4.15854 -25.578 -22.1812 -4.59349 
-19.4675 -3.65149 -0.102111 -18.5815 -2.40106 0.344695 -17.6086 -1.0825 0.796104 
-16.6317 0.205086 1.21451 -15.6888 1.37972 1.66099 -14.6533 2.40455 2.1448 
-13.5414 3.25001 2.53484 -12.5407 3.97088 2.80451 -11.6364 4.61502 3.04521 
-21.2301 -7.09231 2.69037 -22.1221 -8.51321 1.9659 -23.0692 -10.2968 1.15356 
-24.0139 -12.2138 0.340355 -24.8415 -14.1024 -0.402385 -25.4288 -16.0752 -1.14517 
-25.657 -18.1998 -2.04974 -25.6187 -20.3432 -3.08424 -25.5798 -22.2982 -4.02969 
-19.6483 -4.8174 3.77811 -18.8338 -3.48753 4.23036 -17.8842 -2.03933 4.55361 
-16.7626 -0.569005 4.72415 -15.5238 0.87331 4.76719 -14.3039 2.18574 4.65673 
-13.2333 3.20158 4.38803 -12.3306 3.95708 4.04324 -11.5013 4.58869 3.67526 
-19.6776 -29.8949 -7.74986 -20.1735 -30.5919 -7.93676 -21.1282 -30.8952 -7.84401 
-22.3622 -30.9022 -7.58706 -23.3556 -30.411 -7.2664 -23.9191 -29.3261 -6.79909 
-24.4468 -28.0143 -6.17264 -25.0822 -26.7512 -5.59695 -25.5144 -25.4253 -5.1745 
-0.852484 0.496701 0.493493 -1.35077 1.61958 0.763358 -2.14465 2.64041 1.03751 
-3.08977 3.52969 1.34203 -4.16003 4.37036 1.63906 -5.34495 5.08471 1.92042 
-6.62644 5.53149 2.27276 -8.0195 5.67346 2.69578 -9.42602 5.50761 3.05528 
-11.1715 -1.07187 -2.32539 -11.016 -1.72255 -2.61043 -12.3573 -2.13672 -2.44839 
-10.9946 -2.46375 -2.90463 -12.3134 -2.89732 -2.70643 -13.7038 -3.4638 -2.47516 
-11.1077 -3.24853 -3.14337 -12.4534 -3.72923 -2.92764 -13.8592 -4.34031 -2.6802 
-15.4142 -5.18575 -2.55284 -11.1922 -4.06569 -3.28933 -12.7895 -4.58319 -3.06183 
-14.2895 -5.35574 -2.83729 -15.9184 -6.32295 -2.78465 -17.503 -7.40957 -2.91562 
-11.3893 -4.98563 -3.3487 -13.2599 -5.54508 -3.15314 -14.9975 -6.51401 -2.98317 
-16.6074 -7.70141 -3.02535 -18.158 -8.90645 -3.27189 -19.4007 -9.94942 -3.56993 
-12.043 -6.02358 -3.30407 -13.9616 -6.73703 -3.2242 -15.8482 -7.87116 -3.20625 
-17.3683 -9.20351 -3.37887 -18.6811 -10.5218 -3.71127 -19.8249 -11.6191 -4.06528 
-20.6801 -12.416 -4.36378 -13.0585 -7.04879 -3.17811 -14.8461 -8.03893 -3.254 
-16.6274 -9.38805 -3.45968 -18.0017 -10.7675 -3.82521 -19.0217 -12.0595 -4.26182 
-19.9632 -13.1941 -4.6308 -20.8127 -14.0294 -4.92014 -21.4779 -14.5897 -5.14155 
-8.97233 0.240583 -2.17273 -7.69734 0.655232 -2.19317 -8.60312 -0.321119 -2.45519 
-6.34252 0.959978 -2.16046 -7.27384 0.0108266 -2.48454 -8.33813 -0.97251 -2.76352 
-4.92689 1.05514 -2.00908 -5.90733 0.128876 -2.40423 -6.93943 -0.792309 -2.76997 
-8.20281 -1.82748 -3.05597 -3.58747 0.934177 -1.80878 -4.53774 0.0344319 -2.18541 
-5.6128 -0.878253 -2.6323 -6.79411 -1.81436 -3.01575 -8.15471 -2.87221 -3.27212 
-2.52516 0.606367 -1.60648 -3.33772 -0.234357 -1.9801 -4.426 -1.14827 -2.38714 
-5.61807 -2.01031 -2.835 -6.92434 -2.97843 -3.19009 -8.29477 -3.99636 -3.40163 
-1.76241 0.0739513 -1.28254 -2.46331 -0.694076 -1.76656 -3.46741 -1.58839 -2.14541 
-4.62425 -2.41479 -2.55758 -5.91875 -3.24403 -2.9962 -7.3266 -4.24236 -3.32421 
-8.80015 -5.10567 -3.44785 -1.23729 -0.565251 -0.818187 -1.88456 -1.27149 -1.39513 
-2.81152 -2.12356 -1.83408 -3.85774 -2.97579 -2.22593 -5.00188 -3.72383 -2.69832 
-6.37801 -4.59769 -3.15786 -7.91844 -5.47372 -3.4083 -9.61009 -6.04223 -3.37678 
-1.31642 -2.30135 -0.329527 -1.86747 -3.55009 -0.313469 -2.00661 -3.03627 -0.899265 
-2.5048 -4.86558 -0.263199 -2.61828 -4.32514 -0.900946 -2.98783 -3.84092 -1.39835 
-3.36123 -6.00492 -0.145886 -3.32322 -5.62379 -0.865739 -3.68056 -5.07762 -1.44394 
-4.02705 -4.65226 -1.89928 -4.6543 -6.81176 -0.0562323 -4.2897 -6.75329 -0.734941 
[...]
POINT_DATA 1002
FIELD FieldData 4
_paraPhi 1 1002 double
6.2831853072 3.1415926536 6.2831853072 3.1415926536 4.7123889804 4.7123889804 1.5707963268 1.5707963268 3.6951670125 
5.7296109483 2.5880182947 0.5535743589 6.2831853072 6.2831853072 6.2831853072 6.2831853072 3.1415926536 3.1415926536 
3.1415926536 3.1415926536 3.1415926536 6.1053039672 5.898798347 5.6768734901 5.4599499503 5.2659633393 5.1032165617 
4.9713148346 4.8656852733 4.7809517865 0.17788134 0.38438696014 0.60631181711 0.82323535693 1.0172219679 1.1799687454 
1.3118704726 1.4175000338 1.5022335207 6.1892828907 6.1070320098 6.035312792 5.9728339911 5.9183214791 5.8706119594 
5.8286879411 5.7916808611 5.7588591896 0.093902416448 0.17615329733 0.2478725152 0.31035131605 0.36486382811 0.41257334776 
0.45449736604 0.4915044461 0.52432611754 3.3194739936 3.5259796137 3.7479044707 3.9648280105 4.1588146215 4.321561399 
4.4534631262 4.5590926874 4.6438261743 2.9637113136 2.7572056934 2.5352808365 2.3183572967 2.1243706857 1.9616239082 
1.829722181 1.7240926197 1.6393591329 3.23549507 3.3177459509 3.3894651688 3.4519439696 3.5064564817 3.5541660013 
3.5960900196 3.6330970997 3.6659187711 3.0476902371 2.9654393563 2.8937201384 2.8312413375 2.7767288255 2.7290193058 
2.6870952876 2.6500882075 2.617266536 6.2831853072 6.2831853072 6.2831853072 6.2831853072 3.1415926536 3.1415926536 
3.1415926536 3.1415926536 3.1415926536 6.1053039672 5.898798347 5.6768734901 5.4599499503 5.2659633393 5.1032165617 
4.9713148346 4.8656852733 4.7809517865 0.17788134 0.38438696014 0.60631181711 0.82323535693 1.0172219679 1.1799687454 
1.3118704726 1.4175000338 1.5022335207 6.1892828907 6.1070320098 6.035312792 5.9728339911 5.9183214791 5.8706119594 
5.8286879411 5.7916808611 5.7588591896 0.093902416448 0.17615329733 0.2478725152 0.31035131605 0.36486382811 0.41257334776 
0.45449736604 0.4915044461 0.52432611754 3.3194739936 3.5259796137 3.7479044707 3.9648280105 4.1588146215 4.321561399 
4.4534631262 4.5590926874 4.6438261743 2.9637113136 2.7572056934 2.5352808365 2.3183572967 2.1243706857 1.9616239082 
1.829722181 1.7240926197 1.6393591329 3.23549507 3.3177459509 3.3894651688 3.4519439696 3.5064564817 3.5541660013 
3.5960900196 3.6330970997 3.6659187711 3.0476902371 2.9654393563 2.8937201384 2.8312413375 2.7767288255 2.7290193058 
2.6870952876 2.6500882075 2.617266536 4.7123889804 4.7123889804 4.7123889804 4.7123889804 4.7123889804 4.7123889804 
4.7123889804 4.7123889804 4.7123889804 4.6087898617 4.4991390697 4.3857031936 4.2712800401 4.1588146215 4.0509635631 
3.94975894 3.8564636551 3.7716124825 4.8159880991 4.9256388911 5.0390747672 5.1534979207 5.2659633393 5.3738143976 
5.4750190208 5.5683143056 5.6531654782 4.6087898617 4.4991390697 4.3857031936 4.2712800401 4.1588146215 4.0509635631 
3.94975894 3.8564636551 3.7716124825 4.8159880991 4.9256388911 5.0390747672 5.1534979207 5.2659633393 5.3738143976 
5.4750190208 5.5683143056 5.6531654782 1.5707963268 1.5707963268 1.5707963268 1.5707963268 1.5707963268 1.5707963268 
1.5707963268 1.5707963268 1.5707963268 1.6743954455 1.7840462375 1.8974821136 2.0119052671 2.1243706857 2.232221744 
2.3334263672 2.426721652 2.5115728246 1.4671972081 1.3575464161 1.24411054 1.1296873865 1.0172219679 0.90937090954 
0.80816628637 0.71487100155 0.63001982895 1.6743954455 1.7840462375 1.8974821136 2.0119052671 2.1243706857 2.232221744 
2.3334263672 2.426721652 2.5115728246 1.4671972081 1.3575464161 1.24411054 1.1296873865 1.0172219679 0.90937090954 
0.80816628637 0.71487100155 0.63001982895 3.6007720849 3.4966939854 3.3839471039 3.2645756454 3.1415926536 3.0186096618 
2.8992382033 2.7864913217 2.6824132222 5.8240058758 5.9280839753 6.0408308569 6.1602023154 6.2831853072 0.12298299178 
0.2423544503 0.35510133185 0.45917943135 6.0560271438 5.7885595667 5.9702140275 5.5125918794 5.6029703303 5.7885595667 
5.2659633393 5.2659633393 5.2659633393 5.2659633393 5.0674903122 5.0120975802 4.9155579264 4.7123889804 4.1588146215 
4.9155579264 4.8353719722 4.7123889804 4.5092200343 4.1588146215 3.6362183941 4.8004512023 4.7123889804 4.5894059886 
4.4126803806 4.1588146215 3.8218076305 3.4545639333 4.7123889804 4.6243267584 4.5092200343 4.3572876485 4.1588146215 
3.9121860814 3.6362183941 3.368750817 6.0174235957 5.9434319871 5.8263323547 5.8809213739 5.7674481418 5.6279784266 
5.8278025282 5.718968232 5.5891129425 5.4372443565 5.7823484065 5.678536687 5.5575666702 5.4192596322 5.2659633393 
5.743164462 5.6444075337 5.5314983644 5.4046708639 5.2659633393 5.1195510325 5.7091357773 5.6152775188 5.5096229709 
5.3926039573 5.2659633393 5.1329233157 4.9978930058 5.6793730533 5.5901633916 5.4910209005 5.3824597928 5.2659633393 
5.1440684722 5.0201624502 4.8979782167 5.5683143056 5.4750190208 5.4750190208 5.3738143976 5.3738143976 5.3738143976 
5.2659633393 5.2659633393 5.2659633393 5.2659633393 5.1534979207 5.1534979207 5.1534979207 5.1534979207 5.1534979207 
5.0390747672 5.0390747672 5.0390747672 5.0390747672 5.0390747672 5.0390747672 4.9256388911 4.9256388911 4.9256388911 
4.9256388911 4.9256388911 4.9256388911 4.9256388911 4.8159880991 4.8159880991 4.8159880991 4.8159880991 4.8159880991 
4.8159880991 4.8159880991 4.8159880991 4.6087898617 4.6087898617 4.4991390697 4.6087898617 4.4991390697 4.3857031936 
4.6087898617 4.4991390697 4.3857031936 4.2712800401 4.6087898617 4.4991390697 4.3857031936 4.2712800401 4.1588146215 
4.6087898617 4.4991390697 4.3857031936 4.2712800401 4.1588146215 4.0509635631 4.6087898617 4.4991390697 4.3857031936 
4.2712800401 4.1588146215 4.0509635631 3.94975894 4.6087898617 4.4991390697 4.3857031936 4.2712800401 4.1588146215 
4.0509635631 3.94975894 3.8564636551 4.526799744 4.4046155105 4.426884955 4.2807094886 4.2918546451 4.3052269283 
4.1588146215 4.1588146215 4.1588146215 4.1588146215 4.042318168 4.0321740035 4.0201070968 4.0055183285 3.9875336042 
3.9337570603 3.9151549899 3.8932795963 3.8672112905 3.8356650183 3.7967995342 3.8346145692 3.809500442 3.7803704271 
3.7462412737 3.7058097288 3.657329819 3.5984456061 3.7454049075 3.7156421835 3.6816134988 3.6424295543 3.5969754326 
3.5438565869 3.4813459737 3.4073543651 3.5642842451 3.4524645613 3.5233842518 3.3320300872 3.403123212 3.4773852225 
3.20576226 3.2746326772 3.348015857 3.4255060145 3.0774230472 3.1415926536 3.2112816139 3.2864685043 3.3668817272 
2.95115522 3.00855263 3.0719036933 3.1415926536 3.2178377658 3.3005964304 2.8307207459 2.8800620952 2.9351694502 
2.9967168029 3.0653475414 3.1415926536 3.225752376 2.718901062 2.7598010554 2.8058000847 2.8576792927 2.91630358 
2.9825888767 3.0574329311 3.1415926536 3.5642842451 3.5233842518 3.4524645613 3.4773852225 3.403123212 3.3320300872 
3.4255060145 3.348015857 3.2746326772 3.20576226 3.3668817272 3.2864685043 3.2112816139 3.1415926536 3.0774230472 
3.3005964304 3.2178377658 3.1415926536 3.0719036933 3.00855263 2.95115522 3.225752376 3.1415926536 3.0653475414 
2.9967168029 2.9351694502 2.8800620952 2.8307207459 3.1415926536 3.0574329311 2.9825888767 2.91630358 2.8576792927 
2.8058000847 2.7598010554 2.718901062 4.526799744 4.426884955 4.4046155105 4.3052269283 4.2918546451 4.2807094886 
4.1588146215 4.1588146215 4.1588146215 4.1588146215 3.9875336042 4.0055183285 4.0201070968 4.0321740035 4.042318168 
3.7967995342 3.8356650183 3.8672112905 3.8932795963 3.9151549899 3.9337570603 3.5984456061 3.657329819 3.7058097288 
3.7462412737 3.7803704271 3.809500442 3.8346145692 3.4073543651 3.4813459737 3.5438565869 3.5969754326 3.6424295543 
3.6816134988 3.7156421835 3.7454049075 4.7123889804 4.8004512023 4.6243267584 4.9155579264 4.7123889804 4.5092200343 
5.0674903122 4.8353719722 4.5894059886 4.3572876485 5.2659633393 5.0120975802 4.7123889804 4.4126803806 4.1588146215 
5.5125918794 5.2659633393 4.9155579264 4.5092200343 4.1588146215 3.9121860814 5.7885595667 5.6029703303 5.2659633393 
4.7123889804 4.1588146215 3.8218076305 3.6362183941 6.0560271438 5.9702140275 5.7885595667 5.2659633393 4.1588146215 
3.6362183941 3.4545639333 3.368750817 0.22715816343 0.49462574053 0.3129712797 0.77059342779 0.68021497688 0.49462574053 
1.0172219679 1.0172219679 1.0172219679 1.0172219679 1.2156949949 1.271087727 1.3676273807 1.5707963268 2.1243706857 
1.3676273807 1.447813335 1.5707963268 1.7739652728 2.1243706857 2.6469669131 1.4827341049 1.5707963268 1.6937793186 
1.8705049266 2.1243706857 2.4613776767 2.8286213739 1.5707963268 1.6588585487 1.7739652728 1.9258976586 2.1243706857 
2.3709992258 2.6469669131 2.9144344902 1.7563855631 1.8785697967 1.8563003522 2.0024758186 1.9913306621 1.9779583789 
2.1243706857 2.1243706857 2.1243706857 2.1243706857 2.2408671392 2.2510113037 2.2630782103 2.2776669786 2.295651703 
2.3494282469 2.3680303173 2.3899057108 2.4159740166 2.4475202889 2.486385773 2.448570738 2.4736848652 2.5028148801 
2.5369440334 2.5773755784 2.6258554882 2.6847397011 2.5377803997 2.5675431237 2.6015718084 2.6407557529 2.6862098746 
2.7393287203 2.8018393335 2.8758309421 1.6743954455 1.6743954455 1.7840462375 1.6743954455 1.7840462375 1.8974821136 
1.6743954455 1.7840462375 1.8974821136 2.0119052671 1.6743954455 1.7840462375 1.8974821136 2.0119052671 2.1243706857 
1.6743954455 1.7840462375 1.8974821136 2.0119052671 2.1243706857 2.232221744 1.6743954455 1.7840462375 1.8974821136 
2.0119052671 2.1243706857 2.232221744 2.3334263672 1.6743954455 1.7840462375 1.8974821136 2.0119052671 2.1243706857 
2.232221744 2.3334263672 2.426721652 1.4671972081 1.3575464161 1.4671972081 1.24411054 1.3575464161 1.4671972081 
1.1296873865 1.24411054 1.3575464161 1.4671972081 1.0172219679 1.1296873865 1.24411054 1.3575464161 1.4671972081 
0.90937090954 1.0172219679 1.1296873865 1.24411054 1.3575464161 1.4671972081 0.80816628637 0.90937090954 1.0172219679 
1.1296873865 1.24411054 1.3575464161 1.4671972081 0.71487100155 0.80816628637 0.90937090954 1.0172219679 1.1296873865 
1.24411054 1.3575464161 1.4671972081 0.60381225391 0.57404952988 0.69302191562 0.54002084522 0.66790778838 0.79216440667 
0.50083690068 0.63877777351 0.77356233629 0.90072551443 0.45538277901 0.60464862014 0.75168694275 0.89058134991 1.0172219679 
0.40226393329 0.56421707518 0.72561863695 0.87851444325 1.0172219679 1.139116835 0.33975332011 0.51573716537 0.69407236469 
0.86392567495 1.0172219679 1.1502619915 1.2630228569 0.26576171152 0.45685295248 0.6552068806 0.84594095064 1.0172219679 
1.1636342747 1.2852923014 1.3852070904 0.22715816343 0.3129712797 0.49462574053 0.49462574053 0.68021497688 0.77059342779 
1.0172219679 1.0172219679 1.0172219679 1.0172219679 2.1243706857 1.5707963268 1.3676273807 1.271087727 1.2156949949 
2.6469669131 2.1243706857 1.7739652728 1.5707963268 1.447813335 1.3676273807 2.8286213739 2.4613776767 2.1243706857 
1.8705049266 1.6937793186 1.5707963268 1.4827341049 2.9144344902 2.6469669131 2.3709992258 2.1243706857 1.9258976586 
1.7739652728 1.6588585487 1.5707963268 1.7563855631 1.8563003522 1.8785697967 1.9779583789 1.9913306621 2.0024758186 
2.1243706857 2.1243706857 2.1243706857 2.1243706857 2.295651703 2.2776669786 2.2630782103 2.2510113037 2.2408671392 
2.486385773 2.4475202889 2.4159740166 2.3899057108 2.3680303173 2.3494282469 2.6847397011 2.6258554882 2.5773755784 
2.5369440334 2.5028148801 2.4736848652 2.448570738 2.8758309421 2.8018393335 2.7393287203 2.6862098746 2.6407557529 
2.6015718084 2.5675431237 2.5377803997 5.8604937156 5.901393709 5.9723133995 5.9473927383 6.0216547488 6.0927478736 
5.9992719463 6.0767621038 6.1501452836 6.2190157008 6.0578962336 6.1383094565 6.2134963469 0 0.064169606361 
6.1241815303 6.206940195 6.2831853072 0.069688960264 0.13304002361 0.19043743361 6.1990255847 0 0.07624511221 
0.14487585072 0.20642320337 0.26153055843 0.3108719077 0 0.084159722458 0.15900377685 0.22528907359 0.28391336087 
0.3357925689 0.38179159818 0.42269159155 5.8604937156 5.9723133995 5.901393709 6.0927478736 6.0216547488 5.9473927383 
6.2190157008 6.1501452836 6.0767621038 5.9992719463 0.064169606361 0 6.2134963469 6.1383094565 6.0578962336 
0.19043743361 0.13304002361 0.069688960264 6.2831853072 6.206940195 6.1241815303 0.3108719077 0.26153055843 0.20642320337 
0.14487585072 0.07624511221 6.2831853072 6.1990255847 0.42269159155 0.38179159818 0.3357925689 0.28391336087 0.22528907359 
0.15900377685 0.084159722458 0 5.6793730533 5.7091357773 5.5901633916 5.743164462 5.6152775188 5.4910209005 
5.7823484065 5.6444075337 5.5096229709 5.3824597928 5.8278025282 5.678536687 5.5314983644 5.3926039573 5.2659633393 
5.8809213739 5.718968232 5.5575666702 5.4046708639 5.2659633393 5.1440684722 5.9434319871 5.7674481418 5.5891129425 
5.4192596322 5.2659633393 5.1329233157 5.0201624502 6.0174235957 5.8263323547 5.6279784266 5.4372443565 5.2659633393 
5.1195510325 4.9978930058 4.8979782167 1.3852070904 1.2852923014 1.2630228569 1.1636342747 1.1502619915 1.139116835 
1.0172219679 1.0172219679 1.0172219679 1.0172219679 0.84594095064 0.86392567495 0.87851444325 0.89058134991 0.90072551443 
0.6552068806 0.69407236469 0.72561863695 0.75168694275 0.77356233629 0.79216440667 0.45685295248 0.51573716537 0.56421707518 
0.60464862014 0.63877777351 0.66790778838 0.69302191562 0.26576171152 0.33975332011 0.40226393329 0.45538277901 0.50083690068 
0.54002084522 0.57404952988 0.60381225391 
_paraPhiHalf 1 1002 double
0 3.1415926536 0 3.1415926536 1.5707963268 1.5707963268 1.5707963268 1.5707963268 2.5880182947 
0.5535743589 2.5880182947 0.5535743589 0 0 0 0 3.1415926536 3.1415926536 
3.1415926536 3.1415926536 3.1415926536 0.17788134 0.38438696014 0.60631181711 0.82323535693 1.0172219679 1.1799687454 
1.3118704726 1.4175000338 1.5022335207 0.17788134 0.38438696014 0.60631181711 0.82323535693 1.0172219679 1.1799687454 
1.3118704726 1.4175000338 1.5022335207 0.093902416448 0.17615329733 0.2478725152 0.31035131605 0.36486382811 0.41257334776 
0.45449736604 0.4915044461 0.52432611754 0.093902416448 0.17615329733 0.2478725152 0.31035131605 0.36486382811 0.41257334776 
0.45449736604 0.4915044461 0.52432611754 2.9637113136 2.7572056934 2.5352808365 2.3183572967 2.1243706857 1.9616239082 
1.829722181 1.7240926197 1.6393591329 2.9637113136 2.7572056934 2.5352808365 2.3183572967 2.1243706857 1.9616239082 
1.829722181 1.7240926197 1.6393591329 3.0476902371 2.9654393563 2.8937201384 2.8312413375 2.7767288255 2.7290193058 
2.6870952876 2.6500882075 2.617266536 3.0476902371 2.9654393563 2.8937201384 2.8312413375 2.7767288255 2.7290193058 
2.6870952876 2.6500882075 2.617266536 0 0 0 0 3.1415926536 3.1415926536 
3.1415926536 3.1415926536 3.1415926536 0.17788134 0.38438696014 0.60631181711 0.82323535693 1.0172219679 1.1799687454 
1.3118704726 1.4175000338 1.5022335207 0.17788134 0.38438696014 0.60631181711 0.82323535693 1.0172219679 1.1799687454 
1.3118704726 1.4175000338 1.5022335207 0.093902416448 0.17615329733 0.2478725152 0.31035131605 0.36486382811 0.41257334776 
0.45449736604 0.4915044461 0.52432611754 0.093902416448 0.17615329733 0.2478725152 0.31035131605 0.36486382811 0.41257334776 
0.45449736604 0.4915044461 0.52432611754 2.9637113136 2.7572056934 2.5352808365 2.3183572967 2.1243706857 1.9616239082 
1.829722181 1.7240926197 1.6393591329 2.9637113136 2.7572056934 2.5352808365 2.3183572967 2.1243706857 1.9616239082 
1.829722181 1.7240926197 1.6393591329 3.0476902371 2.9654393563 2.8937201384 2.8312413375 2.7767288255 2.7290193058 
2.6870952876 2.6500882075 2.617266536 3.0476902371 2.9654393563 2.8937201384 2.8312413375 2.7767288255 2.7290193058 
2.6870952876 2.6500882075 2.617266536 1.5707963268 1.5707963268 1.5707963268 1.5707963268 1.5707963268 1.5707963268 
1.5707963268 1.5707963268 1.5707963268 1.6743954455 1.7840462375 1.8974821136 2.0119052671 2.1243706857 2.232221744 
2.3334263672 2.426721652 2.5115728246 1.4671972081 1.3575464161 1.24411054 1.1296873865 1.0172219679 0.90937090954 
0.80816628637 0.71487100155 0.63001982895 1.6743954455 1.7840462375 1.8974821136 2.0119052671 2.1243706857 2.232221744 
2.3334263672 2.426721652 2.5115728246 1.4671972081 1.3575464161 1.24411054 1.1296873865 1.0172219679 0.90937090954 
0.80816628637 0.71487100155 0.63001982895 1.5707963268 1.5707963268 1.5707963268 1.5707963268 1.5707963268 1.5707963268 
1.5707963268 1.5707963268 1.5707963268 1.6743954455 1.7840462375 1.8974821136 2.0119052671 2.1243706857 2.232221744 
2.3334263672 2.426721652 2.5115728246 1.4671972081 1.3575464161 1.24411054 1.1296873865 1.0172219679 0.90937090954 
0.80816628637 0.71487100155 0.63001982895 1.6743954455 1.7840462375 1.8974821136 2.0119052671 2.1243706857 2.232221744 
2.3334263672 2.426721652 2.5115728246 1.4671972081 1.3575464161 1.24411054 1.1296873865 1.0172219679 0.90937090954 
0.80816628637 0.71487100155 0.63001982895 2.6824132222 2.7864913217 2.8992382033 3.0186096618 3.1415926536 3.0186096618 
2.8992382033 2.7864913217 2.6824132222 0.45917943135 0.35510133185 0.2423544503 0.12298299178 0 0.12298299178 
0.2423544503 0.35510133185 0.45917943135 0.22715816343 0.49462574053 0.3129712797 0.77059342779 0.68021497688 0.49462574053 
1.0172219679 1.0172219679 1.0172219679 1.0172219679 1.2156949949 1.271087727 1.3676273807 1.5707963268 2.1243706857 
1.3676273807 1.447813335 1.5707963268 1.7739652728 2.1243706857 2.6469669131 1.4827341049 1.5707963268 1.6937793186 
1.8705049266 2.1243706857 2.4613776767 2.8286213739 1.5707963268 1.6588585487 1.7739652728 1.9258976586 2.1243706857 
2.3709992258 2.6469669131 2.9144344902 0.26576171152 0.33975332011 0.45685295248 0.40226393329 0.51573716537 0.6552068806 
0.45538277901 0.56421707518 0.69407236469 0.84594095064 0.50083690068 0.60464862014 0.72561863695 0.86392567495 1.0172219679 
0.54002084522 0.63877777351 0.75168694275 0.87851444325 1.0172219679 1.1636342747 0.57404952988 0.66790778838 0.77356233629 
0.89058134991 1.0172219679 1.1502619915 1.2852923014 0.60381225391 0.69302191562 0.79216440667 0.90072551443 1.0172219679 
1.139116835 1.2630228569 1.3852070904 0.71487100155 0.80816628637 0.80816628637 0.90937090954 0.90937090954 0.90937090954 
1.0172219679 1.0172219679 1.0172219679 1.0172219679 1.1296873865 1.1296873865 1.1296873865 1.1296873865 1.1296873865 
1.24411054 1.24411054 1.24411054 1.24411054 1.24411054 1.24411054 1.3575464161 1.3575464161 1.3575464161 
1.3575464161 1.3575464161 1.3575464161 1.3575464161 1.4671972081 1.4671972081 1.4671972081 1.4671972081 1.4671972081 
1.4671972081 1.4671972081 1.4671972081 1.6743954455 1.6743954455 1.7840462375 1.6743954455 1.7840462375 1.8974821136 
1.6743954455 1.7840462375 1.8974821136 2.0119052671 1.6743954455 1.7840462375 1.8974821136 2.0119052671 2.1243706857 
1.6743954455 1.7840462375 1.8974821136 2.0119052671 2.1243706857 2.232221744 1.6743954455 1.7840462375 1.8974821136 
2.0119052671 2.1243706857 2.232221744 2.3334263672 1.6743954455 1.7840462375 1.8974821136 2.0119052671 2.1243706857 
2.232221744 2.3334263672 2.426721652 1.7563855631 1.8785697967 1.8563003522 2.0024758186 1.9913306621 1.9779583789 
2.1243706857 2.1243706857 2.1243706857 2.1243706857 2.2408671392 2.2510113037 2.2630782103 2.2776669786 2.295651703 
2.3494282469 2.3680303173 2.3899057108 2.4159740166 2.4475202889 2.486385773 2.448570738 2.4736848652 2.5028148801 
2.5369440334 2.5773755784 2.6258554882 2.6847397011 2.5377803997 2.5675431237 2.6015718084 2.6407557529 2.6862098746 
2.7393287203 2.8018393335 2.8758309421 2.718901062 2.8307207459 2.7598010554 2.95115522 2.8800620952 2.8058000847 
3.0774230472 3.00855263 2.9351694502 2.8576792927 3.0774230472 3.1415926536 3.0719036933 2.9967168029 2.91630358 
2.95115522 3.00855263 3.0719036933 3.1415926536 3.0653475414 2.9825888767 2.8307207459 2.8800620952 2.9351694502 
2.9967168029 3.0653475414 3.1415926536 3.0574329311 2.718901062 2.7598010554 2.8058000847 2.8576792927 2.91630358 
2.9825888767 3.0574329311 3.1415926536 2.718901062 2.7598010554 2.8307207459 2.8058000847 2.8800620952 2.95115522 
2.8576792927 2.9351694502 3.00855263 3.0774230472 2.91630358 2.9967168029 3.0719036933 3.1415926536 3.0774230472 
2.9825888767 3.0653475414 3.1415926536 3.0719036933 3.00855263 2.95115522 3.0574329311 3.1415926536 3.0653475414 