# vtk DataFile Version 5.1
vtk output
ASCII
DATASET POLYDATA
POINTS 1002 float
-10.7383 0.502036 -2.3484 -24.9743 -14.5404 -4.75271 -9.68955 -2.45463 3.95725 
-23.8627 -15.5076 -0.0532933 -13.327 -6.77075 -3.45388 -14.0185 -7.86028 -0.0211772 
-21.2896 -2.63267 -0.877503 -21.227 -3.68882 2.88867 -22.6935 -27.2216 -5.58264 
-1.22253 -1.8074 0.277714 -29.2476 -20.1885 -3.04526 -10.246 5.52802 2.74839 
-11.7762 -0.132381 -2.57683 -12.9668 -0.86509 -2.79908 -14.3386 -1.77322 -2.89316 
-15.9749 -2.92185 -2.89449 -17.8646 -4.3728 -3.03022 -19.8162 -6.2075 -3.35914 
-21.6096 -8.35391 -3.7297 -23.0917 -10.5665 -4.08101 -24.1959 -12.654 -4.42837 
-10.5028 -0.0116918 -2.60046 -10.3094 -0.587765 -2.88155 -10.1654 -1.17072 -3.19899 
-10.126 -1.8874 -3.48136 -10.2372 -2.86823 -3.6244 -10.4383 -3.8992 -3.66973 
-10.7292 -4.75631 -3.72862 -11.2852 -5.50586 -3.75779 -12.1991 -6.19326 -3.65757 
-11.633 0.556201 -2.21477 -12.6084 0.516805 -2.03415 -13.6755 0.376929 -1.80754 
-14.846 0.167429 -1.57954 -16.073 -0.119238 -1.40307 -17.2895 -0.512758 -1.28059 
-18.4396 -0.98905 -1.16379 -19.4852 -1.51572 -1.04003 -20.4314 -2.07541 -0.942108 
-9.57411 0.822442 -2.31056 -8.33986 1.1119 -2.28639 -7.03988 1.27537 -2.2011 
-5.64073 1.24443 -2.00002 -4.23797 1.01869 -1.74894 -3.06389 0.624956 -1.49202 
-2.1968 0.111586 -1.13166 -1.57569 -0.47844 -0.635857 -1.23379 -1.13202 -0.132786 
-10.3312 1.17114 -2.06428 -9.98766 1.87161 -1.75352 -9.67835 2.60978 -1.37722 
-9.4226 3.33851 -0.90125 -9.30774 3.97453 -0.346036 -9.32578 4.51837 0.226624 
-9.45023 5.01348 0.803458 -9.70753 5.40419 1.43381 -10.0159 5.58119 2.11082 
-24.5377 -14.3647 -4.78897 -24.0016 -14.0176 -4.79581 -23.2987 -13.4391 -4.73914 
-22.4336 -12.6395 -4.55782 -21.4309 -11.5966 -4.27179 -20.0945 -10.2239 -3.99645 
-18.3002 -8.71949 -3.77925 -16.391 -7.55259 -3.60223 -14.7328 -6.94776 -3.48824 
-24.9471 -13.4887 -4.48949 -24.8512 -12.2773 -4.19091 -24.6183 -10.8754 -3.88364 
-24.2167 -9.36781 -3.55253 -23.7545 -7.9425 -3.1547 -23.2969 -6.66539 -2.70246 
-22.7737 -5.47264 -2.24386 -22.2109 -4.36873 -1.78762 -21.7139 -3.41812 -1.32606 
-25.3263 -16.3375 -5.09885 -25.5392 -18.2798 -5.48333 -25.5568 -20.28 -5.92366 
-25.3683 -22.2364 -6.35021 -25.012 -24.0061 -6.68368 -24.4966 -25.4681 -6.94149 
-23.8453 -26.5974 -7.03505 -23.2212 -27.3151 -6.78364 -22.823 -27.5043 -6.22899 
-25.6267 -15.7048 -4.90829 -26.2705 -16.8082 -5.0481 -26.8785 -17.8126 -5.15395 
-27.4136 -18.7809 -5.16976 -27.8463 -19.698 -5.04257 -28.204 -20.3749 -4.82428 
-28.5623 -20.6995 -4.55907 -28.913 -20.7262 -4.17434 -29.1567 -20.5327 -3.63912 
-10.7466 -3.04043 3.8124 -11.9862 -3.63074 3.5873 -13.4994 -4.30199 3.30371 
-15.2935 -5.16627 2.92303 -17.2131 -6.30185 2.4107 -19.0714 -7.82431 1.82477 
-20.7447 -9.74911 1.23438 -22.1286 -11.8172 0.696064 -23.1571 -13.7587 0.268752 
-9.60165 -3.03992 3.6879 -9.61129 -3.62738 3.33497 -9.71784 -4.25982 2.95984 
-9.92658 -4.98717 2.61066 -10.3002 -5.69633 2.23449 -10.877 -6.235 1.75903 
-11.5958 -6.65721 1.22664 -12.3776 -7.07786 0.744772 -13.1934 -7.4881 0.344587 
-10.4761 -2.24521 4.11991 -11.3415 -2.0896 4.30718 -12.3238 -2.05373 4.50162 
-13.5612 -2.13141 4.57606 -15.0719 -2.26314 4.46686 -16.6347 -2.45631 4.26569 
-18.0379 -2.72725 4.00334 -19.2457 -3.02955 3.64466 -20.3011 -3.34366 3.24799 
-8.58071 -2.22547 3.88156 -7.44326 -2.01525 3.72113 -6.36386 -1.84548 3.46554 
-5.30137 -1.70037 3.14053 -4.21311 -1.58012 2.79433 -3.26381 -1.53128 2.4126 
-2.53471 -1.57107 1.92342 -1.90319 -1.66291 1.34899 -1.4075 -1.75491 0.788525 
-9.1639 -1.67111 4.11495 -8.67409 -0.793104 4.19961 -8.25695 0.179159 4.2836 
-7.95118 1.33747 4.38344 -7.81987 2.59297 4.37112 -7.93083 3.64403 4.19824 
-8.31788 4.41333 3.9614 -8.94215 5.00917 3.66782 -9.64692 5.40271 3.25361 
-23.2903 -15.0016 -0.0577083 -22.652 -14.2805 -0.0979307 -21.9376 -13.4639 -0.127783 
-21.11 -12.6025 -0.113073 -20.1289 -11.6141 -0.0562877 -18.9949 -10.5388 0.0318262 
-17.7635 -9.5613 0.105373 -16.4947 -8.78008 0.117225 -15.2303 -8.21236 0.0696163 
-24.0296 -14.7495 0.103269 -24.1163 -13.7737 0.309759 -24.0571 -12.6743 0.623128 
-23.8519 -11.4678 0.973115 -23.5631 -10.0876 1.29348 -23.214 -8.64231 1.64758 
-22.7537 -7.27605 2.03625 -22.198 -5.97168 2.36774 -21.6645 -4.74917 2.63762 
-24.0717 -17.0132 -0.364009 -24.2431 -18.7196 -0.748339 -24.3637 -20.5603 -1.1725 
-24.3245 -22.3484 -1.62121 -24.1373 -23.9546 -2.19929 -23.9366 -25.2758 -2.95024 
-23.6543 -26.2371 -3.71975 -23.2182 -26.8998 -4.40975 -22.8346 -27.2627 -5.04367 
-24.5396 -16.7843 -0.255718 -25.204 -18.0371 -0.490194 -25.8948 -19.1846 -0.699982 
-26.6382 -20.1265 -0.866983 -27.3379 -20.7507 -1.14058 -27.8658 -21.0081 -1.57007 
-28.2909 -20.9761 -1.96555 -28.7218 -20.7963 -2.27251 -29.0784 -20.5455 -2.62454 
-13.1859 -7.05068 -3.27476 -12.9903 -7.31865 -3.0494 -12.8773 -7.6161 -2.82358 
-12.9218 -7.89998 -2.53807 -13.0149 -8.06971 -2.10684 -13.1274 -8.10247 -1.61511 
-13.3317 -8.05632 -1.17596 -13.5808 -7.98824 -0.76168 -13.8046 -7.92387 -0.358367 
-15.4548 -7.56373 -3.31909 -17.5494 -9.12626 -3.43413 -19.2415 -11.6478 -3.75359 
-20.6348 -14.7889 -4.09418 -21.8161 -17.9118 -4.38838 -22.5019 -20.5787 -4.68449 
-22.6971 -22.7448 -5.01189 -22.7175 -24.5759 -5.34615 -22.6946 -26.1115 -5.5742 
-11.2896 -6.55331 -3.64616 -9.44171 -6.40414 -3.7806 -7.93838 -6.07258 -3.56266 
-6.64999 -5.56934 -2.98523 -5.39675 -4.95734 -2.3529 -4.22492 -4.23331 -1.82098 
-3.18415 -3.5406 -1.29044 -2.25164 -2.99569 -0.721933 -1.54872 -2.46141 -0.187013 
-15.6095 -8.57594 -0.351308 -17.1994 -9.8415 -0.76906 -18.6498 -11.7223 -1.25537 
-19.9538 -14.0088 -1.75027 -21.0919 -16.5973 -2.24686 -21.8916 -19.506 -2.80721 
-22.3201 -22.3101 -3.48267 -22.5444 -24.4917 -4.23693 -22.6501 -26.0593 -4.96077 
-12.2391 -7.51619 0.0965409 -10.3286 -7.38939 0.231284 -8.44775 -7.32673 0.39635 
-6.76265 -7.11349 0.566107 -5.35626 -6.60918 0.65306 -4.17323 -5.85635 0.608668 
-3.12997 -4.97277 0.510241 -2.24085 -3.99532 0.432158 -1.58758 -2.92013 0.362719 
-21.53 -2.52474 -0.554708 -21.7321 -2.38779 -0.192783 -21.9124 -2.2086 0.238975 
-22.0794 -2.05345 0.787593 -22.1406 -2.03832 1.39622 -22.0492 -2.22644 1.93701 
-21.9001 -2.56397 2.35888 -21.7345 -2.9423 2.65282 -21.5079 -3.31435 2.81337 
-22.4031 -3.69912 -1.11341 -23.5938 -4.96974 -1.38462 -24.8268 -6.49388 -1.69177 
-26.0652 -8.17193 -2.01497 -27.2037 -9.89368 -2.28 -28.0986 -11.9203 -2.51179 
-28.7129 -14.4456 -2.80522 -29.1036 -16.9649 -3.06088 -29.2861 -18.8832 -3.12426 
-20.328 -1.55181 -0.472175 -19.262 -0.418476 -0.0574848 -18.1359 0.717337 0.351153 
-16.9878 1.76317 0.735417 -15.7773 2.68116 1.11483 -14.4993 3.50804 1.49922 
-13.2815 4.23328 1.84906 -12.2134 4.82358 2.16402 -11.2326 5.26969 2.47105 
-22.3968 -4.77931 2.37792 -23.6788 -6.19208 1.78261 -25.0499 -7.96641 1.11891 
-26.4747 -9.91622 0.551727 -27.7668 -11.8029 0.139258 -28.6532 -13.7136 -0.34287 
-29.0965 -15.7355 -1.03398 -29.2761 -17.581 -1.79669 -29.3149 -19.0302 -2.47665 
-20.2796 -2.47736 3.36504 -19.2709 -1.20445 3.84028 -18.128 0.104784 4.17392 
-16.7846 1.35661 4.31333 -15.366 2.52475 4.37822 -14.0886 3.5683 4.36853 
-12.9736 4.34418 4.12442 -11.9626 4.85252 3.67498 -11.0617 5.23399 3.19465 
-22.8643 -28.2385 -5.78811 -23.488 -28.8448 -5.80767 -24.7275 -28.8763 -5.64823 
-26.118 -28.339 -5.36104 -27.0714 -27.3873 -5.01422 -27.6694 -26.2086 -4.63557 
-28.2039 -24.8221 -4.19249 -28.6691 -23.2162 -3.72132 -29.0193 -21.6102 -3.33281 
-1.1391 -0.591137 0.503471 -1.35383 0.681438 0.760505 -1.89282 1.79238 1.01251 
-2.68743 2.77044 1.23082 -3.5651 3.73138 1.43744 -4.58116 4.57461 1.67476 
-5.95489 5.19371 1.98081 -7.55085 5.57432 2.32029 -9.02499 5.67603 2.58911 
-11.6286 -0.70514 -2.84688 -11.5181 -1.30199 -3.13098 -12.9389 -1.50689 -3.04347 
-11.5437 -1.93406 -3.43206 -13.0103 -2.18149 -3.27902 -14.5124 -2.50517 -3.0795 
-11.7781 -2.78286 -3.65929 -13.3027 -2.95637 -3.50757 -14.8424 -3.31007 -3.25822 
-16.4073 -3.77529 -3.08335 -12.0568 -3.76156 -3.72148 -13.7358 -3.85706 -3.6436 
-15.3326 -4.21078 -3.41793 -16.9588 -4.74455 -3.27219 -18.507 -5.44032 -3.28674 
-12.2635 -4.57362 -3.68685 -14.1032 -4.6601 -3.64471 -15.8913 -5.11001 -3.51275 
-17.5868 -5.81386 -3.44234 -19.2115 -6.67254 -3.53934 -20.5659 -7.57495 -3.66552 
-12.6847 -5.30275 -3.64857 -14.5519 -5.42509 -3.60414 -16.5612 -6.04662 -3.57352 
-18.3582 -7.01463 -3.60856 -19.9548 -8.0851 -3.79142 -21.3171 -9.11564 -3.98861 
-22.3325 -9.96244 -4.07263 -13.5689 -6.12355 -3.58926 -15.3548 -6.42547 -3.59479 
-17.4215 -7.28732 -3.66521 -19.2847 -8.52283 -3.80137 -20.7498 -9.75675 -4.0452 
-21.9666 -10.8281 -4.3026 -22.9392 -11.6851 -4.43334 -23.6467 -12.2782 -4.45121 
-9.27768 0.254745 -2.57503 -8.00303 0.453758 -2.5525 -9.0566 -0.396955 -2.8752 
-6.63451 0.486127 -2.40866 -7.75255 -0.33614 -2.8165 -8.85396 -1.10752 -3.18124 
-5.15655 0.315911 -2.12438 -6.33661 -0.448154 -2.59008 -7.50101 -1.22091 -3.05238 
-8.71037 -2.0063 -3.3973 -3.79947 -0.0442766 -1.85893 -4.88583 -0.739608 -2.28786 
-6.14718 -1.48125 -2.80326 -7.37897 -2.26986 -3.23914 -8.79647 -3.11866 -3.51653 
-2.80861 -0.557909 -1.60744 -3.69795 -1.21519 -2.04845 -4.91553 -1.92142 -2.53713 
-6.25631 -2.66582 -3.04365 -7.6459 -3.45223 -3.44217 -9.15051 -4.21519 -3.67379 
-2.14086 -1.15397 -1.19596 -2.93311 -1.78819 -1.72697 -3.99413 -2.49121 -2.2239 
-5.31894 -3.23088 -2.74064 -6.76098 -3.9214 -3.2785 -8.20917 -4.60482 -3.70276 
-9.67156 -5.1678 -3.8532 -1.70831 -1.79561 -0.664008 -2.48443 -2.37647 -1.22923 
-3.45466 -3.027 -1.7719 -4.62276 -3.78944 -2.28563 -5.98198 -4.48363 -2.86275 
-7.38903 -5.08418 -3.47968 -8.79836 -5.6208 -3.86604 -10.3641 -5.96504 -3.86165 
-2.06372 -3.54301 -0.149616 -2.84985 -4.64069 -0.180169 -2.90944 -4.07226 -0.763268 
-3.77306 -5.73111 -0.170061 -3.71999 -5.27542 -0.88677 -3.91924 -4.68174 -1.387 
-4.81242 -6.69281 -0.0377481 -4.58541 -6.50141 -0.876942 -4.72802 -5.96877 -1.52798 
-5.01907 -5.39903 -1.93725 -6.13746 -7.32742 0.0600174 -5.68833 -7.43021 -0.680984 
[...]
POINT_DATA 1002
FIELD FieldData 4
_paraPhi 1 1002 double
6.2831853072 3.1415926536 6.2831853072 3.1415926536 4.7123889804 4.7123889804 1.5707963268 1.5707963268 3.6951670125 
5.7296109483 2.5880182947 0.5535743589 6.2831853072 6.2831853072 6.2831853072 6.2831853072 3.1415926536 3.1415926536 
3.1415926536 3.1415926536 3.1415926536 6.1053039672 5.898798347 5.6768734901 5.4599499503 5.2659633393 5.1032165617 
4.9713148346 4.8656852733 4.7809517865 0.17788134 0.38438696014 0.60631181711 0.82323535693 1.0172219679 1.1799687454 
1.3118704726 1.4175000338 1.5022335207 6.1892828907 6.1070320098 6.035312792 5.9728339911 5.9183214791 5.8706119594 
5.8286879411 5.7916808611 5.7588591896 0.093902416448 0.17615329733 0.2478725152 0.31035131605 0.36486382811 0.41257334776 
0.45449736604 0.4915044461 0.52432611754 3.3194739936 3.5259796137 3.7479044707 3.9648280105 4.1588146215 4.321561399 
4.4534631262 4.5590926874 4.6438261743 2.9637113136 2.7572056934 2.5352808365 2.3183572967 2.1243706857 1.9616239082 
1.829722181 1.7240926197 1.6393591329 3.23549507 3.3177459509 3.3894651688 3.4519439696 3.5064564817 3.5541660013 
3.5960900196 3.6330970997 3.6659187711 3.0476902371 2.9654393563 2.8937201384 2.8312413375 2.7767288255 2.7290193058 
2.6870952876 2.6500882075 2.617266536 6.2831853072 6.2831853072 6.2831853072 6.2831853072 3.1415926536 3.1415926536 
3.1415926536 3.1415926536 3.1415926536 6.1053039672 5.898798347 5.6768734901 5.4599499503 5.2659633393 5.1032165617 
4.9713148346 4.8656852733 4.7809517865 0.17788134 0.38438696014 0.60631181711 0.82323535693 1.0172219679 1.1799687454 
1.3118704726 1.4175000338 1.5022335207 6.1892828907 6.1070320098 6.035312792 5.9728339911 5.9183214791 5.8706119594 
5.8286879411 5.7916808611 5.7588591896 0.093902416448 0.17615329733 0.2478725152 0.31035131605 0.36486382811 0.41257334776 
0.45449736604 0.4915044461 0.52432611754 3.3194739936 3.5259796137 3.7479044707 3.9648280105 4.1588146215 4.321561399 
4.4534631262 4.5590926874 4.6438261743 2.9637113136 2.7572056934 2.5352808365 2.3183572967 2.1243706857 1.9616239082 
1.829722181 1.7240926197 1.6393591329 3.23549507 3.3177459509 3.3894651688 3.4519439696 3.5064564817 3.5541660013 
3.5960900196 3.6330970997 3.6659187711 3.0476902371 2.9654393563 2.8937201384 2.8312413375 2.7767288255 2.7290193058 
2.6870952876 2.6500882075 2.617266536 4.7123889804 4.7123889804 4.7123889804 4.7123889804 4.7123889804 4.7123889804 
4.7123889804 4.7123889804 4.7123889804 4.6087898617 4.4991390697 4.3857031936 4.2712800401 4.1588146215 4.0509635631 
3.94975894 3.8564636551 3.7716124825 4.8159880991 4.9256388911 5.0390747672 5.1534979207 5.2659633393 5.3738143976 
5.4750190208 5.5683143056 5.6531654782 4.6087898617 4.4991390697 4.3857031936 4.2712800401 4.1588146215 4.0509635631 
3.94975894 3.8564636551 3.7716124825 4.8159880991 4.9256388911 5.0390747672 5.1534979207 5.2659633393 5.3738143976 
5.4750190208 5.5683143056 5.6531654782 1.5707963268 1.5707963268 1.5707963268 1.5707963268 1.5707963268 1.5707963268 
1.5707963268 1.5707963268 1.5707963268 1.6743954455 1.7840462375 1.8974821136 2.0119052671 2.1243706857 2.232221744 
2.3334263672 2.426721652 2.5115728246 1.4671972081 1.3575464161 1.24411054 1.1296873865 1.0172219679 0.90937090954 
0.80816628637 0.71487100155 0.63001982895 1.6743954455 1.7840462375 1.8974821136 2.0119052671 2.1243706857 2.232221744 
2.3334263672 2.426721652 2.5115728246 1.4671972081 1.3575464161 1.24411054 1.1296873865 1.0172219679 0.90937090954 
0.80816628637 0.71487100155 0.63001982895 3.6007720849 3.4966939854 3.3839471039 3.2645756454 3.1415926536 3.0186096618 
2.8992382033 2.7864913217 2.6824132222 5.8240058758 5.9280839753 6.0408308569 6.1602023154 6.2831853072 0.12298299178 
0.2423544503 0.35510133185 0.45917943135 6.0560271438 5.7885595667 5.9702140275 5.5125918794 5.6029703303 5.7885595667 
5.2659633393 5.2659633393 5.2659633393 5.2659633393 5.0674903122 5.0120975802 4.9155579264 4.7123889804 4.1588146215 
4.9155579264 4.8353719722 4.7123889804 4.5092200343 4.1588146215 3.6362183941 4.8004512023 4.7123889804 4.5894059886 
4.4126803806 4.1588146215 3.8218076305 3.4545639333 4.7123889804 4.6243267584 4.5092200343 4.3572876485 4.1588146215 
3.9121860814 3.6362183941 3.368750817 6.0174235957 5.9434319871 5.8263323547 5.8809213739 5.7674481418 5.6279784266 
5.8278025282 5.718968232 5.5891129425 5.4372443565 5.7823484065 5.678536687 5.5575666702 5.4192596322 5.2659633393 
5.743164462 5.6444075337 5.5314983644 5.4046708639 5.2659633393 5.1195510325 5.7091357773 5.6152775188 5.5096229709 
5.3926039573 5.2659633393 5.1329233157 4.9978930058 5.6793730533 5.5901633916 5.4910209005 5.3824597928 5.2659633393 
5.1440684722 5.0201624502 4.8979782167 5.5683143056 5.4750190208 5.4750190208 5.3738143976 5.3738143976 5.3738143976 
5.2659633393 5.2659633393 5.2659633393 5.2659633393 5.1534979207 5.1534979207 5.1534979207 5.1534979207 5.1534979207 
5.0390747672 5.0390747672 5.0390747672 5.0390747672 5.0390747672 5.0390747672 4.9256388911 4.9256388911 4.9256388911 
4.9256388911 4.9256388911 4.9256388911 4.9256388911 4.8159880991 4.8159880991 4.8159880991 4.8159880991 4.8159880991 
4.8159880991 4.8159880991 4.8159880991 4.6087898617 4.6087898617 4.4991390697 4.6087898617 4.4991390697 4.3857031936 
4.6087898617 4.4991390697 4.3857031936 4.2712800401 4.6087898617 4.4991390697 4.3857031936 4.2712800401 4.1588146215 
4.6087898617 4.4991390697 4.3857031936 4.2712800401 4.1588146215 4.0509635631 4.6087898617 4.4991390697 4.3857031936 
4.2712800401 4.1588146215 4.0509635631 3.94975894 4.6087898617 4.4991390697 4.3857031936 4.2712800401 4.1588146215 
4.0509635631 3.94975894 3.8564636551 4.526799744 4.4046155105 4.426884955 4.2807094886 4.2918546451 4.3052269283 
4.1588146215 4.1588146215 4.1588146215 4.1588146215 4.042318168 4.0321740035 4.0201070968 4.0055183285 3.9875336042 
3.9337570603 3.9151549899 3.8932795963 3.8672112905 3.8356650183 3.7967995342 3.8346145692 3.809500442 3.7803704271 
3.7462412737 3.7058097288 3.657329819 3.5984456061 3.7454049075 3.7156421835 3.6816134988 3.6424295543 3.5969754326 
3.5438565869 3.4813459737 3.4073543651 3.5642842451 3.4524645613 3.5233842518 3.3320300872 3.403123212 3.4773852225 
3.20576226 3.2746326772 3.348015857 3.4255060145 3.0774230472 3.1415926536 3.2112816139 3.2864685043 3.3668817272 
2.95115522 3.00855263 3.0719036933 3.1415926536 3.2178377658 3.3005964304 2.8307207459 2.8800620952 2.9351694502 
2.9967168029 3.0653475414 3.1415926536 3.225752376 2.718901062 2.7598010554 2.8058000847 2.8576792927 2.91630358 
2.9825888767 3.0574329311 3.1415926536 3.5642842451 3.5233842518 3.4524645613 3.4773852225 3.403123212 3.3320300872 
3.4255060145 3.348015857 3.2746326772 3.20576226 3.3668817272 3.2864685043 3.2112816139 3.1415926536 3.0774230472 
3.3005964304 3.2178377658 3.1415926536 3.0719036933 3.00855263 2.95115522 3.225752376 3.1415926536 3.0653475414 
2.9967168029 2.9351694502 2.8800620952 2.8307207459 3.1415926536 3.0574329311 2.9825888767 2.91630358 2.8576792927 
2.8058000847 2.7598010554 2.718901062 4.526799744 4.426884955 4.4046155105 4.3052269283 4.2918546451 4.2807094886 
4.1588146215 4.1588146215 4.1588146215 4.1588146215 3.9875336042 4.0055183285 4.0201070968 4.0321740035 4.042318168 
3.7967995342 3.8356650183 3.8672112905 3.8932795963 3.9151549899 3.9337570603 3.5984456061 3.657329819 3.7058097288 
3.7462412737 3.7803704271 3.809500442 3.8346145692 3.4073543651 3.4813459737 3.5438565869 3.5969754326 3.6424295543 
3.6816134988 3.7156421835 3.7454049075 4.7123889804 4.8004512023 4.6243267584 4.9155579264 4.7123889804 4.5092200343 
5.0674903122 4.8353719722 4.5894059886 4.3572876485 5.2659633393 5.0120975802 4.7123889804 4.4126803806 4.1588146215 
5.5125918794 5.2659633393 4.9155579264 4.5092200343 4.1588146215 3.9121860814 5.7885595667 5.6029703303 5.2659633393 
4.7123889804 4.1588146215 3.8218076305 3.6362183941 6.0560271438 5.9702140275 5.7885595667 5.2659633393 4.1588146215 
3.6362183941 3.4545639333 3.368750817 0.22715816343 0.49462574053 0.3129712797 0.77059342779 0.68021497688 0.49462574053 
1.0172219679 1.0172219679 1.0172219679 1.0172219679 1.2156949949 1.271087727 1.3676273807 1.5707963268 2.1243706857 
1.3676273807 1.447813335 1.5707963268 1.7739652728 2.1243706857 2.6469669131 1.4827341049 1.5707963268 1.6937793186 
1.8705049266 2.1243706857 2.4613776767 2.8286213739 1.5707963268 1.6588585487 1.7739652728 1.9258976586 2.1243706857 
2.3709992258 2.6469669131 2.9144344902 1.7563855631 1.8785697967 1.8563003522 2.0024758186 1.9913306621 1.9779583789 
2.1243706857 2.1243706857 2.1243706857 2.1243706857 2.2408671392 2.2510113037 2.2630782103 2.2776669786 2.295651703 
2.3494282469 2.3680303173 2.3899057108 2.4159740166 2.4475202889 2.486385773 2.448570738 2.4736848652 2.5028148801 
2.5369440334 2.5773755784 2.6258554882 2.6847397011 2.5377803997 2.5675431237 2.6015718084 2.6407557529 2.6862098746 
2.7393287203 2.8018393335 2.8758309421 1.6743954455 1.6743954455 1.7840462375 1.6743954455 1.7840462375 1.8974821136 
1.6743954455 1.7840462375 1.8974821136 2.0119052671 1.6743954455 1.7840462375 1.8974821136 2.0119052671 2.1243706857 
1.6743954455 1.7840462375 1.8974821136 2.0119052671 2.1243706857 2.232221744 1.6743954455 1.7840462375 1.8974821136 
2.0119052671 2.1243706857 2.232221744 2.3334263672 1.6743954455 1.7840462375 1.8974821136 2.0119052671 2.1243706857 
2.232221744 2.3334263672 2.426721652 1.4671972081 1.3575464161 1.4671972081 1.24411054 1.3575464161 1.4671972081 
1.1296873865 1.24411054 1.3575464161 1.4671972081 1.0172219679 1.1296873865 1.24411054 1.3575464161 1.4671972081 
0.90937090954 1.0172219679 1.1296873865 1.24411054 1.3575464161 1.4671972081 0.80816628637 0.90937090954 1.0172219679 
1.1296873865 1.24411054 1.3575464161 1.4671972081 0.71487100155 0.80816628637 0.90937090954 1.0172219679 1.1296873865 
1.24411054 1.3575464161 1.4671972081 0.60381225391 0.57404952988 0.69302191562 0.54002084522 0.66790778838 0.79216440667 
0.50083690068 0.63877777351 0.77356233629 0.90072551443 0.45538277901 0.60464862014 0.75168694275 0.89058134991 1.0172219679 
0.40226393329 0.56421707518 0.72561863695 0.87851444325 1.0172219679 1.139116835 0.33975332011 0.51573716537 0.69407236469 
0.86392567495 1.0172219679 1.1502619915 1.2630228569 0.26576171152 0.45685295248 0.6552068806 0.84594095064 1.0172219679 
1.1636342747 1.2852923014 1.3852070904 0.22715816343 0.3129712797 0.49462574053 0.49462574053 0.68021497688 0.77059342779 
1.0172219679 1.0172219679 1.0172219679 1.0172219679 2.1243706857 1.5707963268 1.3676273807 1.271087727 1.2156949949 
2.6469669131 2.1243706857 1.7739652728 1.5707963268 1.447813335 1.3676273807 2.8286213739 2.4613776767 2.1243706857 
1.8705049266 1.6937793186 1.5707963268 1.4827341049 2.9144344902 2.6469669131 2.3709992258 2.1243706857 1.9258976586 
1.7739652728 1.6588585487 1.5707963268 1.7563855631 1.8563003522 1.8785697967 1.9779583789 1.9913306621 2.0024758186 
2.1243706857 2.1243706857 2.1243706857 2.1243706857 2.295651703 2.2776669786 2.2630782103 2.2510113037 2.2408671392 
2.486385773 2.4475202889 2.4159740166 2.3899057108 2.3680303173 2.3494282469 2.6847397011 2.6258554882 2.5773755784 
2.5369440334 2.5028148801 2.4736848652 2.448570738 2.8758309421 2.8018393335 2.7393287203 2.6862098746 2.6407557529 
2.6015718084 2.5675431237 2.5377803997 5.8604937156 5.901393709 5.9723133995 5.9473927383 6.0216547488 6.0927478736 
5.9992719463 6.0767621038 6.1501452836 6.2190157008 6.0578962336 6.1383094565 6.2134963469 0 0.064169606361 
6.1241815303 6.206940195 6.2831853072 0.069688960264 0.13304002361 0.19043743361 6.1990255847 0 0.07624511221 
0.14487585072 0.20642320337 0.26153055843 0.3108719077 0 0.084159722458 0.15900377685 0.22528907359 0.28391336087 
0.3357925689 0.38179159818 0.42269159155 5.8604937156 5.9723133995 5.901393709 6.0927478736 6.0216547488 5.9473927383 
6.2190157008 6.1501452836 6.0767621038 5.9992719463 0.064169606361 0 6.2134963469 6.1383094565 6.0578962336 
0.19043743361 0.13304002361 0.069688960264 6.2831853072 6.206940195 6.1241815303 0.3108719077 0.26153055843 0.20642320337 
0.14487585072 0.07624511221 6.2831853072 6.1990255847 0.42269159155 0.38179159818 0.3357925689 0.28391336087 0.22528907359 
0.15900377685 0.084159722458 0 5.6793730533 5.7091357773 5.5901633916 5.743164462 5.6152775188 5.4910209005 
5.7823484065 5.6444075337 5.5096229709 5.3824597928 5.8278025282 5.678536687 5.5314983644 5.3926039573 5.2659633393 
5.8809213739 5.718968232 5.5575666702 5.4046708639 5.2659633393 5.1440684722 5.9434319871 5.7674481418 5.5891129425 
5.4192596322 5.2659633393 5.1329233157 5.0201624502 6.0174235957 5.8263323547 5.6279784266 5.4372443565 5.2659633393 
5.1195510325 4.9978930058 4.8979782167 1.3852070904 1.2852923014 1.2630228569 1.1636342747 1.1502619915 1.139116835 
1.0172219679 1.0172219679 1.0172219679 1.0172219679 0.84594095064 0.86392567495 0.87851444325 0.89058134991 0.90072551443 
0.6552068806 0.69407236469 0.72561863695 0.75168694275 0.77356233629 0.79216440667 0.45685295248 0.51573716537 0.56421707518 
0.60464862014 0.63877777351 0.66790778838 0.69302191562 0.26576171152 0.33975332011 0.40226393329 0.45538277901 0.50083690068 
0.54002084522 0.57404952988 0.60381225391 
_paraPhiHalf 1 1002 double
0 3.1415926536 0 3.1415926536 1.5707963268 1.5707963268 1.5707963268 1.5707963268 2.5880182947 
0.5535743589 2.5880182947 0.5535743589 0 0 0 0 3.1415926536 3.1415926536 
3.1415926536 3.1415926536 3.1415926536 0.17788134 0.38438696014 0.60631181711 0.82323535693 1.0172219679 1.1799687454 
1.3118704726 1.4175000338 1.5022335207 0.17788134 0.38438696014 0.60631181711 0.82323535693 1.0172219679 1.1799687454 
1.3118704726 1.4175000338 1.5022335207 0.093902416448 0.17615329733 0.2478725152 0.31035131605 0.36486382811 0.41257334776 
0.45449736604 0.4915044461 0.52432611754 0.093902416448 0.17615329733 0.2478725152 0.31035131605 0.36486382811 0.41257334776 
0.45449736604 0.4915044461 0.52432611754 2.9637113136 2.7572056934 2.5352808365 2.3183572967 2.1243706857 1.9616239082 
1.829722181 1.7240926197 1.6393591329 2.9637113136 2.7572056934 2.5352808365 2.3183572967 2.1243706857 1.9616239082 
1.829722181 1.7240926197 1.6393591329 3.0476902371 2.9654393563 2.8937201384 2.8312413375 2.7767288255 2.7290193058 
2.6870952876 2.6500882075 2.617266536 3.0476902371 2.9654393563 2.8937201384 2.8312413375 2.7767288255 2.7290193058 
2.6870952876 2.6500882075 2.617266536 0 0 0 0 3.1415926536 3.1415926536 
3.1415926536 3.1415926536 3.1415926536 0.17788134 0.38438696014 0.60631181711 0.82323535693 1.0172219679 1.1799687454 
1.3118704726 1.4175000338 1.5022335207 0.17788134 0.38438696014 0.60631181711 0.82323535693 1.0172219679 1.1799687454 
1.3118704726 1.4175000338 1.5022335207 0.093902416448 0.17615329733 0.2478725152 0.31035131605 0.36486382811 0.41257334776 
0.45449736604 0.4915044461 0.52432611754 0.093902416448 0.17615329733 0.2478725152 0.31035131605 0.36486382811 0.41257334776 
0.45449736604 0.4915044461 0.52432611754 2.9637113136 2.7572056934 2.5352808365 2.3183572967 2.1243706857 1.9616239082 
1.829722181 1.7240926197 1.6393591329 2.9637113136 2.7572056934 2.5352808365 2.3183572967 2.1243706857 1.9616239082 
1.829722181 1.7240926197 1.6393591329 3.0476902371 2.9654393563 2.8937201384 2.8312413375 2.7767288255 2.7290193058 
2.6870952876 2.6500882075 2.617266536 3.0476902371 2.9654393563 2.8937201384 2.8312413375 2.7767288255 2.7290193058 
2.6870952876 2.6500882075 2.617266536 1.5707963268 1.5707963268 1.5707963268 1.5707963268 1.5707963268 1.5707963268 
1.5707963268 1.5707963268 1.5707963268 1.6743954455 1.7840462375 1.8974821136 2.0119052671 2.1243706857 2.232221744 
2.3334263672 2.426721652 2.5115728246 1.4671972081 1.3575464161 1.24411054 1.1296873865 1.0172219679 0.90937090954 
0.80816628637 0.71487100155 0.63001982895 1.6743954455 1.7840462375 1.8974821136 2.0119052671 2.1243706857 2.232221744 
2.3334263672 2.426721652 2.5115728246 1.4671972081 1.3575464161 1.24411054 1.1296873865 1.0172219679 0.90937090954 
0.80816628637 0.71487100155 0.63001982895 1.5707963268 1.5707963268 1.5707963268 1.5707963268 1.5707963268 1.5707963268 
1.5707963268 1.5707963268 1.5707963268 1.6743954455 1.7840462375 1.8974821136 2.0119052671 2.1243706857 2.232221744 
2.3334263672 2.426721652 2.5115728246 1.4671972081 1.3575464161 1.24411054 1.1296873865 1.0172219679 0.90937090954 
0.80816628637 0.71487100155 0.63001982895 1.6743954455 1.7840462375 1.8974821136 2.0119052671 2.1243706857 2.232221744 
2.3334263672 2.426721652 2.5115728246 1.4671972081 1.3575464161 1.24411054 1.1296873865 1.0172219679 0.90937090954 
0.80816628637 0.71487100155 0.63001982895 2.6824132222 2.7864913217 2.8992382033 3.0186096618 3.1415926536 3.0186096618 
2.8992382033 2.7864913217 2.6824132222 0.45917943135 0.35510133185 0.2423544503 0.12298299178 0 0.12298299178 
0.2423544503 0.35510133185 0.45917943135 0.22715816343 0.49462574053 0.3129712797 0.77059342779 0.68021497688 0.49462574053 
1.0172219679 1.0172219679 1.0172219679 1.0172219679 1.2156949949 1.271087727 1.3676273807 1.5707963268 2.1243706857 
1.3676273807 1.447813335 1.5707963268 1.7739652728 2.1243706857 2.6469669131 1.4827341049 1.5707963268 1.6937793186 
1.8705049266 2.1243706857 2.4613776767 2.8286213739 1.5707963268 1.6588585487 1.7739652728 1.9258976586 2.1243706857 
2.3709992258 2.6469669131 2.9144344902 0.26576171152 0.33975332011 0.45685295248 0.40226393329 0.51573716537 0.6552068806 
0.45538277901 0.56421707518 0.69407236469 0.84594095064 0.50083690068 0.60464862014 0.72561863695 0.86392567495 1.0172219679 
0.54002084522 0.63877777351 0.75168694275 0.87851444325 1.0172219679 1.1636342747 0.57404952988 0.66790778838 0.77356233629 
0.89058134991 1.0172219679 1.1502619915 1.2852923014 0.60381225391 0.69302191562 0.79216440667 0.90072551443 1.0172219679 
1.139116835 1.2630228569 1.3852070904 0.71487100155 0.80816628637 0.80816628637 0.90937090954 0.90937090954 0.90937090954 
1.0172219679 1.0172219679 1.0172219679 1.0172219679 1.1296873865 1.1296873865 1.1296873865 1.1296873865 1.1296873865 
1.24411054 1.24411054 1.24411054 1.24411054 1.24411054 1.24411054 1.3575464161 1.3575464161 1.3575464161 
1.3575464161 1.3575464161 1.3575464161 1.3575464161 1.4671972081 1.4671972081 1.4671972081 1.4671972081 1.4671972081 
1.4671972081 1.4671972081 1.4671972081 1.6743954455 1.6743954455 1.7840462375 1.6743954455 1.7840462375 1.8974821136 
1.6743954455 1.7840462375 1.8974821136 2.0119052671 1.6743954455 1.7840462375 1.8974821136 2.0119052671 2.1243706857 
1.6743954455 1.7840462375 1.8974821136 2.0119052671 2.1243706857 2.232221744 1.6743954455 1.7840462375 1.8974821136 
2.0119052671 2.1243706857 2.232221744 2.3334263672 1.6743954455 1.7840462375 1.8974821136 2.0119052671 2.1243706857 
2.232221744 2.3334263672 2.426721652 1.7563855631 1.8785697967 1.8563003522 2.0024758186 1.9913306621 1.9779583789 
2.1243706857 2.1243706857 2.1243706857 2.1243706857 2.2408671392 2.2510113037 2.2630782103 2.2776669786 2.295651703 
2.3494282469 2.3680303173 2.3899057108 2.4159740166 2.4475202889 2.486385773 2.448570738 2.4736848652 2.5028148801 
2.5369440334 2.5773755784 2.6258554882 2.6847397011 2.5377803997 2.5675431237 2.6015718084 2.6407557529 2.6862098746 
2.7393287203 2.8018393335 2.8758309421 2.718901062 2.8307207459 2.7598010554 2.95115522 2.8800620952 2.8058000847 
3.0774230472 3.00855263 2.9351694502 2.8576792927 3.0774230472 3.1415926536 3.0719036933 2.9967168029 2.91630358 
2.95115522 3.00855263 3.0719036933 3.1415926536 3.0653475414 2.9825888767 2.8307207459 2.8800620952 2.9351694502 
2.9967168029 3.0653475414 3.1415926536 3.0574329311 2.718901062 2.7598010554 2.8058000847 2.8576792927 2.91630358 
2.9825888767 3.0574329311 3.1415926536 2.718901062 2.7598010554 2.8307207459 2.8058000847 2.8800620952 2.95115522 
2.8576792927 2.9351694502 3.00855263 3.0774230472 2.91630358 2.9967168029 3.0719036933 3.1415926536 3.0774230472 
2.9825888767 3.0653475414 3.1415926536 3.0719036933 3.00855263 2.95115522 3.0574329311 3.1415926536 3.0653475414 