# vtk DataFile Version 5.1
vtk output
ASCII
DATASET POLYDATA
POINTS 1002 float
-10.5494 0.617799 -2.30313 -24.9055 -14.7269 -5.04155 -9.73242 -2.34656 3.92638 
-23.7173 -15.3717 -0.301514 -13.7535 -6.62498 -2.8121 -14.0919 -7.87803 0.465275 
-21.0486 -2.83597 -0.72245 -21.3721 -3.67866 3.1563 -23.7531 -27.1067 -5.50574 
-1.11352 -1.44219 0.0968573 -29.1052 -21.1925 -3.50755 -10.1262 5.85876 2.43931 
-11.5729 -0.0568574 -2.4105 -12.7939 -0.864832 -2.49354 -14.1876 -1.8854 -2.49608 
-15.8336 -3.20225 -2.46825 -17.8715 -4.85465 -2.60184 -20.0634 -6.81943 -2.98524 
-21.9127 -8.9732 -3.52267 -23.2538 -11.0928 -4.10622 -24.2137 -13.013 -4.63986 
-10.3335 0.0962769 -2.51181 -10.1393 -0.506117 -2.72476 -10.0445 -1.16855 -2.96336 
-10.1109 -1.91632 -3.19838 -10.2168 -2.77842 -3.36259 -10.3083 -3.71516 -3.42795 
-10.6856 -4.64224 -3.39428 -11.5477 -5.45326 -3.25676 -12.6673 -6.09017 -3.04194 
-11.3904 0.659564 -2.12925 -12.36 0.604764 -1.9161 -13.4825 0.463415 -1.70534 
-14.6738 0.201378 -1.51644 -15.8502 -0.217874 -1.33134 -17.0277 -0.721452 -1.15366 
-18.1654 -1.25018 -0.995332 -19.1942 -1.81071 -0.859655 -20.1474 -2.35686 -0.767279 
-9.42565 0.934698 -2.32499 -8.16778 1.22136 -2.33357 -6.79636 1.44206 -2.30884 
-5.39201 1.49294 -2.21621 -4.06505 1.31663 -2.04823 -2.95186 0.972288 -1.80569 
-2.12408 0.488323 -1.43101 -1.53591 -0.138488 -0.912376 -1.17951 -0.819265 -0.367357 
-10.1346 1.32595 -2.08407 -9.77237 2.06006 -1.81415 -9.46885 2.77918 -1.48784 
-9.25266 3.50821 -1.087 -9.16368 4.20127 -0.573399 -9.18595 4.71688 0.0260427 
-9.29583 5.1269 0.625086 -9.52387 5.5537 1.21899 -9.84088 5.8483 1.83929 
-24.4293 -14.5313 -5.03681 -23.8176 -14.2144 -4.93004 -23.0176 -13.7032 -4.76204 
-22.0987 -12.9122 -4.54597 -21.1859 -11.91 -4.20664 -20.1662 -10.7757 -3.75101 
-18.7868 -9.45099 -3.31976 -17.0824 -8.08641 -3.01286 -15.3369 -7.07899 -2.8502 
-24.9548 -13.7788 -4.74213 -24.9234 -12.6571 -4.35385 -24.7169 -11.3532 -3.92664 
-24.3064 -9.9219 -3.45507 -23.7997 -8.48647 -2.91042 -23.2649 -7.13688 -2.36367 
-22.6653 -5.87455 -1.88727 -22.0393 -4.70736 -1.46195 -21.4912 -3.68744 -1.07104 
-25.1861 -16.3715 -5.36901 -25.3884 -18.1801 -5.68099 -25.5004 -20.0242 -6.07162 
-25.5179 -21.8114 -6.47507 -25.4365 -23.5539 -6.67231 -25.2023 -25.1623 -6.72984 
-24.7782 -26.4337 -6.82752 -24.2915 -27.2254 -6.74509 -23.9338 -27.4461 -6.24875 
-25.5214 -15.8518 -5.1825 -26.1334 -17.0067 -5.29502 -26.77 -18.1244 -5.42221 
-27.392 -19.1221 -5.4933 -27.93 -19.9511 -5.44105 -28.4124 -20.6562 -5.31886 
-28.8477 -21.2605 -5.09741 -29.124 -21.6264 -4.67386 -29.186 -21.5985 -4.09762 
-10.7809 -2.95403 3.87293 -12.0828 -3.62222 3.76091 -13.6892 -4.38846 3.55427 
-15.5758 -5.32566 3.16297 -17.5542 -6.539 2.60098 -19.3393 -8.10636 1.97829 
-20.8046 -9.9535 1.33637 -21.9973 -11.8686 0.712063 -22.9604 -13.689 0.166762 
-9.67487 -2.88428 3.6384 -9.68227 -3.52759 3.38262 -9.77581 -4.20292 3.09627 
-9.97005 -4.84945 2.70977 -10.325 -5.47096 2.29338 -10.8861 -6.04602 1.91401 
-11.597 -6.54809 1.51909 -12.3865 -7.00968 1.11541 -13.2309 -7.45346 0.769361 
-10.4613 -2.26421 4.21633 -11.4069 -2.24084 4.43849 -12.6515 -2.26356 4.52543 
-14.1232 -2.34933 4.54013 -15.6396 -2.4753 4.51721 -17.0648 -2.62124 4.36042 
-18.3675 -2.8442 4.069 -19.5521 -3.13712 3.76849 -20.572 -3.41804 3.48582 
-8.703 -2.07875 3.7381 -7.58186 -1.85839 3.52399 -6.40789 -1.66627 3.28096 
-5.2743 -1.47989 2.96259 -4.23027 -1.33708 2.57832 -3.26951 -1.27365 2.17095 
-2.39078 -1.27174 1.71148 -1.66328 -1.31488 1.18703 -1.21778 -1.38504 0.641982 
-9.19666 -1.63632 4.10353 -8.63246 -0.780413 4.1965 -8.06653 0.260738 4.21504 
-7.67452 1.47859 4.208 -7.59531 2.77126 4.08703 -7.76502 3.91348 3.81549 
-8.14888 4.7624 3.54579 -8.78084 5.37502 3.28327 -9.51651 5.7661 2.90424 
-23.1679 -15.0511 -0.249063 -22.5366 -14.557 -0.195025 -21.8039 -13.8859 -0.129086 
-20.9608 -13.0503 -0.0115746 -20.0185 -12.0824 0.168347 -18.9911 -11.034 0.34676 
-17.8933 -9.96607 0.460103 -16.7046 -9.00968 0.513879 -15.4116 -8.30844 0.521271 
-23.7936 -14.5623 -0.0372363 -23.8056 -13.6346 0.298005 -23.7282 -12.545 0.640893 
-23.5781 -11.2714 0.965725 -23.4034 -9.91599 1.3752 -23.1713 -8.58395 1.89604 
-22.7938 -7.24034 2.36946 -22.3058 -5.89849 2.70507 -21.819 -4.69253 2.95489 
-24.0454 -16.9387 -0.72032 -24.3216 -18.6477 -1.16223 -24.5162 -20.3545 -1.60231 
-24.5773 -22.0205 -2.00382 -24.5214 -23.6266 -2.43977 -24.4332 -24.9534 -2.99513 
-24.3099 -25.9189 -3.60944 -24.1 -26.6657 -4.24023 -23.8739 -27.1226 -4.90127 
-24.4571 -16.5495 -0.62368 -25.2126 -17.7893 -0.936468 -25.9723 -19.0426 -1.16477 
-26.6933 -20.1209 -1.37678 -27.3059 -20.851 -1.7188 -27.8195 -21.2809 -2.12073 
-28.3152 -21.5285 -2.43511 -28.7678 -21.6234 -2.73088 -29.0477 -21.5355 -3.10706 
-13.4287 -6.85436 -2.66858 -13.0843 -7.11103 -2.48649 -12.8904 -7.35178 -2.24998 
-12.8933 -7.60798 -1.95657 -12.9649 -7.86431 -1.60592 -13.0748 -7.97886 -1.1831 
-13.2839 -7.94846 -0.696579 -13.5522 -7.91826 -0.216824 -13.8211 -7.91512 0.176836 
-15.8047 -7.6239 -2.67237 -17.7984 -9.47026 -2.83321 -19.3376 -11.9879 -3.35155 
-20.4235 -14.7154 -4.01086 -21.3979 -17.437 -4.54724 -22.3598 -20.0121 -4.9051 
-23.0757 -22.2338 -5.16316 -23.4366 -24.1558 -5.37474 -23.5961 -25.8415 -5.51231 
-11.6596 -6.3651 -3.00193 -9.72903 -6.34151 -3.14885 -7.97664 -6.03377 -3.06253 
-6.43658 -5.40124 -2.69731 -5.21509 -4.75232 -2.19921 -4.13854 -4.09636 -1.76496 
-3.03802 -3.37147 -1.39398 -2.08198 -2.69385 -0.945858 -1.43517 -2.07393 -0.411497 
-15.7739 -8.7353 0.140918 -17.3717 -10.2076 -0.378756 -18.7096 -12.2665 -1.03437 
-19.8071 -14.5849 -1.67969 -20.8076 -16.92 -2.29838 -21.7525 -19.263 -2.9308 
-22.5527 -21.5747 -3.52692 -23.1317 -23.7501 -4.11455 -23.5005 -25.6543 -4.7859 
-12.1601 -7.45267 0.519764 -10.1572 -7.24065 0.538323 -8.2777 -7.05119 0.605583 
-6.55226 -6.77985 0.719845 -5.02032 -6.3677 0.769676 -3.83339 -5.66125 0.683097 
-2.94222 -4.62945 0.51353 -2.14481 -3.495 0.349716 -1.4768 -2.4338 0.219353 
-21.3271 -2.62838 -0.479106 -21.5392 -2.45017 -0.151706 -21.6782 -2.2932 0.316682 
-21.8248 -2.07573 0.901154 -21.9218 -1.87516 1.47653 -21.8211 -1.93689 1.94585 
-21.6238 -2.30216 2.33394 -21.5226 -2.78285 2.68849 -21.4812 -3.24863 2.97922 
-22.217 -3.84876 -0.91697 -23.4313 -5.09259 -1.16052 -24.5908 -6.62456 -1.45883 
-25.7398 -8.31718 -1.80045 -26.8824 -9.97705 -2.14889 -27.7225 -11.8408 -2.49324 
-28.1351 -14.3136 -2.86793 -28.4396 -17.1125 -3.23653 -28.8176 -19.5143 -3.46991 
-20.0806 -1.76371 -0.397021 -19.0241 -0.622936 -0.0352536 -17.8718 0.572639 0.327472 
-16.7197 1.73425 0.659998 -15.6183 2.79196 1.02912 -14.4479 3.69169 1.45011 
-13.2274 4.39538 1.79448 -12.134 4.98224 2.0267 -11.147 5.50512 2.23416 
-22.3643 -4.65577 2.63031 -23.4487 -5.98754 2.00601 -24.6404 -7.67625 1.32313 
-25.8495 -9.49677 0.650583 -26.9394 -11.3004 0.0486372 -27.8042 -13.2223 -0.540628 
-28.3343 -15.3603 -1.2699 -28.6024 -17.5672 -2.1207 -28.843 -19.5807 -2.89853 
-20.4752 -2.55229 3.56159 -19.4778 -1.32229 3.92045 -18.3279 -0.00657313 4.14413 
-17.0029 1.29258 4.2179 -15.5647 2.53598 4.16977 -14.1627 3.64095 3.97912 
-12.9505 4.46191 3.65203 -11.9421 5.04441 3.26688 -11.0244 5.51359 2.86723 
-24.09 -28.2524 -5.8308 -24.6815 -28.8826 -5.97059 -25.6716 -29.0335 -5.87551 
-26.8958 -28.8373 -5.64819 -27.809 -28.1801 -5.39326 -28.2107 -26.9882 -5.03162 
-28.5453 -25.5641 -4.52951 -28.993 -24.1768 -4.07646 -29.2287 -22.7705 -3.7765 
-1.06428 -0.353866 0.291331 -1.39375 0.848948 0.454661 -2.03069 1.9949 0.623768 
-2.83701 3.03601 0.830536 -3.7742 4.0469 1.03092 -4.84331 4.94879 1.22352 
-6.04833 5.60726 1.50688 -7.40963 5.98781 1.88344 -8.82911 6.06152 2.22209 
-11.4698 -0.629223 -2.63058 -11.4092 -1.31776 -2.85656 -12.7988 -1.5153 -2.69235 
-11.4946 -2.07662 -3.08729 -12.8652 -2.29347 -2.8849 -14.3267 -2.62795 -2.64019 
-11.72 -2.85394 -3.26231 -13.1243 -3.11178 -3.03918 -14.6079 -3.48656 -2.77499 
-16.2722 -4.08076 -2.61441 -11.923 -3.65937 -3.34154 -13.5817 -3.91557 -3.10956 
-15.182 -4.43765 -2.85695 -16.9367 -5.14743 -2.76239 -18.6632 -5.99718 -2.83974 
-12.2535 -4.54213 -3.32858 -14.1883 -4.80236 -3.1314 -16.052 -5.48781 -2.92239 
-17.8195 -6.42552 -2.90347 -19.5286 -7.40688 -3.08527 -20.9087 -8.27812 -3.3246 
-13.0541 -5.46529 -3.21299 -15.058 -5.8802 -3.11935 -17.0919 -6.71967 -3.05153 
-18.7905 -7.82461 -3.14833 -20.2803 -8.95988 -3.40058 -21.5699 -9.90398 -3.68879 
-22.5304 -10.5895 -3.93993 -14.2116 -6.31586 -3.02601 -16.1251 -7.03603 -3.06135 
-18.0842 -8.12205 -3.19589 -19.6435 -9.31139 -3.47748 -20.8387 -10.4726 -3.8288 
-21.9336 -11.4844 -4.12401 -22.8943 -12.2079 -4.36269 -23.6326 -12.6816 -4.55227 
-9.10236 0.354828 -2.5359 -7.77988 0.574754 -2.56066 -8.81729 -0.277131 -2.76167 
-6.39531 0.679242 -2.52139 -7.45327 -0.147432 -2.78711 -8.64828 -0.984421 -3.0082 
-4.98297 0.578488 -2.34497 -6.08533 -0.224541 -2.68457 -7.23834 -1.01247 -2.99652 
-8.63784 -1.87195 -3.22499 -3.67855 0.280146 -2.10359 -4.74734 -0.499584 -2.42623 
-5.94068 -1.27982 -2.82075 -7.24326 -2.06209 -3.15263 -8.74259 -2.92713 -3.352 
-2.67882 -0.181235 -1.84951 -3.60272 -0.922737 -2.17083 -4.80976 -1.69881 -2.52585 
-6.11129 -2.41206 -2.92834 -7.54251 -3.20512 -3.23225 -9.04614 -4.02552 -3.39053 
-2.00698 -0.78986 -1.46429 -2.80847 -1.48559 -1.899 -3.92966 -2.25227 -2.22558 
-5.19148 -2.9325 -2.59466 -6.58956 -3.59762 -2.99309 -8.126 -4.40322 -3.26992 
-9.70969 -5.04856 -3.35597 -1.58751 -1.4568 -0.9359 -2.32579 -2.1075 -1.46707 
-3.36378 -2.84902 -1.85522 -4.52025 -3.56918 -2.19928 -5.75723 -4.17923 -2.63457 
-7.2424 -4.87815 -3.05206 -8.89271 -5.53713 -3.26496 -10.6501 -5.84663 -3.2262 
-1.92831 -3.11399 -0.306074 -2.65837 -4.26237 -0.198925 -2.71335 -3.78603 -0.82869 
-3.48402 -5.46095 -0.0541668 -3.5091 -4.96662 -0.7373 -3.79731 -4.47805 -1.28199 
-4.50099 -6.44805 0.137489 -4.39895 -6.13997 -0.610557 -4.66501 -5.59911 -1.24063 
-4.9396 -5.16832 -1.73796 -5.90021 -7.04585 0.263493 -5.52345 -7.10008 -0.408896 
-5.61211 -6.73586 -1.14294 -5.85743 -6.25537 -1.7523 -6.04537 -5.86642 -2.26279 
[...]
POINT_DATA 1002
FIELD FieldData 4
_paraPhi 1 1002 double
6.2831853072 3.1415926536 6.2831853072 3.1415926536 4.7123889804 4.7123889804 1.5707963268 1.5707963268 3.6951670125 
5.7296109483 2.5880182947 0.5535743589 6.2831853072 6.2831853072 6.2831853072 6.2831853072 3.1415926536 3.1415926536 
3.1415926536 3.1415926536 3.1415926536 6.1053039672 5.898798347 5.6768734901 5.4599499503 5.2659633393 5.1032165617 
4.9713148346 4.8656852733 4.7809517865 0.17788134 0.38438696014 0.60631181711 0.82323535693 1.0172219679 1.1799687454 
1.3118704726 1.4175000338 1.5022335207 6.1892828907 6.1070320098 6.035312792 5.9728339911 5.9183214791 5.8706119594 
5.8286879411 5.7916808611 5.7588591896 0.093902416448 0.17615329733 0.2478725152 0.31035131605 0.36486382811 0.41257334776 
0.45449736604 0.4915044461 0.52432611754 3.3194739936 3.5259796137 3.7479044707 3.9648280105 4.1588146215 4.321561399 
4.4534631262 4.5590926874 4.6438261743 2.9637113136 2.7572056934 2.5352808365 2.3183572967 2.1243706857 1.9616239082 
1.829722181 1.7240926197 1.6393591329 3.23549507 3.3177459509 3.3894651688 3.4519439696 3.5064564817 3.5541660013 
3.5960900196 3.6330970997 3.6659187711 3.0476902371 2.9654393563 2.8937201384 2.8312413375 2.7767288255 2.7290193058 
2.6870952876 2.6500882075 2.617266536 6.2831853072 6.2831853072 6.2831853072 6.2831853072 3.1415926536 3.1415926536 
3.1415926536 3.1415926536 3.1415926536 6.1053039672 5.898798347 5.6768734901 5.4599499503 5.2659633393 5.1032165617 
4.9713148346 4.8656852733 4.7809517865 0.17788134 0.38438696014 0.60631181711 0.82323535693 1.0172219679 1.1799687454 
1.3118704726 1.4175000338 1.5022335207 6.1892828907 6.1070320098 6.035312792 5.9728339911 5.9183214791 5.8706119594 
5.8286879411 5.7916808611 5.7588591896 0.093902416448 0.17615329733 0.2478725152 0.31035131605 0.36486382811 0.41257334776 
0.45449736604 0.4915044461 0.52432611754 3.3194739936 3.5259796137 3.7479044707 3.9648280105 4.1588146215 4.321561399 
4.4534631262 4.5590926874 4.6438261743 2.9637113136 2.7572056934 2.5352808365 2.3183572967 2.1243706857 1.9616239082 
1.829722181 1.7240926197 1.6393591329 3.23549507 3.3177459509 3.3894651688 3.4519439696 3.5064564817 3.5541660013 
3.5960900196 3.6330970997 3.6659187711 3.0476902371 2.9654393563 2.8937201384 2.8312413375 2.7767288255 2.7290193058 
2.6870952876 2.6500882075 2.617266536 4.7123889804 4.7123889804 4.7123889804 4.7123889804 4.7123889804 4.7123889804 
4.7123889804 4.7123889804 4.7123889804 4.6087898617 4.4991390697 4.3857031936 4.2712800401 4.1588146215 4.0509635631 
3.94975894 3.8564636551 3.7716124825 4.8159880991 4.9256388911 5.0390747672 5.1534979207 5.2659633393 5.3738143976 
5.4750190208 5.5683143056 5.6531654782 4.6087898617 4.4991390697 4.3857031936 4.2712800401 4.1588146215 4.0509635631 
3.94975894 3.8564636551 3.7716124825 4.8159880991 4.9256388911 5.0390747672 5.1534979207 5.2659633393 5.3738143976 
5.4750190208 5.5683143056 5.6531654782 1.5707963268 1.5707963268 1.5707963268 1.5707963268 1.5707963268 1.5707963268 
1.5707963268 1.5707963268 1.5707963268 1.6743954455 1.7840462375 1.8974821136 2.0119052671 2.1243706857 2.232221744 
2.3334263672 2.426721652 2.5115728246 1.4671972081 1.3575464161 1.24411054 1.1296873865 1.0172219679 0.90937090954 
0.80816628637 0.71487100155 0.63001982895 1.6743954455 1.7840462375 1.8974821136 2.0119052671 2.1243706857 2.232221744 
2.3334263672 2.426721652 2.5115728246 1.4671972081 1.3575464161 1.24411054 1.1296873865 1.0172219679 0.90937090954 
0.80816628637 0.71487100155 0.63001982895 3.6007720849 3.4966939854 3.3839471039 3.2645756454 3.1415926536 3.0186096618 
2.8992382033 2.7864913217 2.6824132222 5.8240058758 5.9280839753 6.0408308569 6.1602023154 6.2831853072 0.12298299178 
0.2423544503 0.35510133185 0.45917943135 6.0560271438 5.7885595667 5.9702140275 5.5125918794 5.6029703303 5.7885595667 
5.2659633393 5.2659633393 5.2659633393 5.2659633393 5.0674903122 5.0120975802 4.9155579264 4.7123889804 4.1588146215 
4.9155579264 4.8353719722 4.7123889804 4.5092200343 4.1588146215 3.6362183941 4.8004512023 4.7123889804 4.5894059886 
4.4126803806 4.1588146215 3.8218076305 3.4545639333 4.7123889804 4.6243267584 4.5092200343 4.3572876485 4.1588146215 
3.9121860814 3.6362183941 3.368750817 6.0174235957 5.9434319871 5.8263323547 5.8809213739 5.7674481418 5.6279784266 
5.8278025282 5.718968232 5.5891129425 5.4372443565 5.7823484065 5.678536687 5.5575666702 5.4192596322 5.2659633393 
5.743164462 5.6444075337 5.5314983644 5.4046708639 5.2659633393 5.1195510325 5.7091357773 5.6152775188 5.5096229709 
5.3926039573 5.2659633393 5.1329233157 4.9978930058 5.6793730533 5.5901633916 5.4910209005 5.3824597928 5.2659633393 
5.1440684722 5.0201624502 4.8979782167 5.5683143056 5.4750190208 5.4750190208 5.3738143976 5.3738143976 5.3738143976 
5.2659633393 5.2659633393 5.2659633393 5.2659633393 5.1534979207 5.1534979207 5.1534979207 5.1534979207 5.1534979207 
5.0390747672 5.0390747672 5.0390747672 5.0390747672 5.0390747672 5.0390747672 4.9256388911 4.9256388911 4.9256388911 
4.9256388911 4.9256388911 4.9256388911 4.9256388911 4.8159880991 4.8159880991 4.8159880991 4.8159880991 4.8159880991 
4.8159880991 4.8159880991 4.8159880991 4.6087898617 4.6087898617 4.4991390697 4.6087898617 4.4991390697 4.3857031936 
4.6087898617 4.4991390697 4.3857031936 4.2712800401 4.6087898617 4.4991390697 4.3857031936 4.2712800401 4.1588146215 
4.6087898617 4.4991390697 4.3857031936 4.2712800401 4.1588146215 4.0509635631 4.6087898617 4.4991390697 4.3857031936 
4.2712800401 4.1588146215 4.0509635631 3.94975894 4.6087898617 4.4991390697 4.3857031936 4.2712800401 4.1588146215 
4.0509635631 3.94975894 3.8564636551 4.526799744 4.4046155105 4.426884955 4.2807094886 4.2918546451 4.3052269283 
4.1588146215 4.1588146215 4.1588146215 4.1588146215 4.042318168 4.0321740035 4.0201070968 4.0055183285 3.9875336042 
3.9337570603 3.9151549899 3.8932795963 3.8672112905 3.8356650183 3.7967995342 3.8346145692 3.809500442 3.7803704271 
3.7462412737 3.7058097288 3.657329819 3.5984456061 3.7454049075 3.7156421835 3.6816134988 3.6424295543 3.5969754326 
3.5438565869 3.4813459737 3.4073543651 3.5642842451 3.4524645613 3.5233842518 3.3320300872 3.403123212 3.4773852225 
3.20576226 3.2746326772 3.348015857 3.4255060145 3.0774230472 3.1415926536 3.2112816139 3.2864685043 3.3668817272 
2.95115522 3.00855263 3.0719036933 3.1415926536 3.2178377658 3.3005964304 2.8307207459 2.8800620952 2.9351694502 
2.9967168029 3.0653475414 3.1415926536 3.225752376 2.718901062 2.7598010554 2.8058000847 2.8576792927 2.91630358 
2.9825888767 3.0574329311 3.1415926536 3.5642842451 3.5233842518 3.4524645613 3.4773852225 3.403123212 3.3320300872 
3.4255060145 3.348015857 3.2746326772 3.20576226 3.3668817272 3.2864685043 3.2112816139 3.1415926536 3.0774230472 
3.3005964304 3.2178377658 3.1415926536 3.0719036933 3.00855263 2.95115522 3.225752376 3.1415926536 3.0653475414 
2.9967168029 2.9351694502 2.8800620952 2.8307207459 3.1415926536 3.0574329311 2.9825888767 2.91630358 2.8576792927 
2.8058000847 2.7598010554 2.718901062 4.526799744 4.426884955 4.4046155105 4.3052269283 4.2918546451 4.2807094886 
4.1588146215 4.1588146215 4.1588146215 4.1588146215 3.9875336042 4.0055183285 4.0201070968 4.0321740035 4.042318168 
3.7967995342 3.8356650183 3.8672112905 3.8932795963 3.9151549899 3.9337570603 3.5984456061 3.657329819 3.7058097288 
3.7462412737 3.7803704271 3.809500442 3.8346145692 3.4073543651 3.4813459737 3.5438565869 3.5969754326 3.6424295543 
3.6816134988 3.7156421835 3.7454049075 4.7123889804 4.8004512023 4.6243267584 4.9155579264 4.7123889804 4.5092200343 
5.0674903122 4.8353719722 4.5894059886 4.3572876485 5.2659633393 5.0120975802 4.7123889804 4.4126803806 4.1588146215 
5.5125918794 5.2659633393 4.9155579264 4.5092200343 4.1588146215 3.9121860814 5.7885595667 5.6029703303 5.2659633393 
4.7123889804 4.1588146215 3.8218076305 3.6362183941 6.0560271438 5.9702140275 5.7885595667 5.2659633393 4.1588146215 
3.6362183941 3.4545639333 3.368750817 0.22715816343 0.49462574053 0.3129712797 0.77059342779 0.68021497688 0.49462574053 
1.0172219679 1.0172219679 1.0172219679 1.0172219679 1.2156949949 1.271087727 1.3676273807 1.5707963268 2.1243706857 
1.3676273807 1.447813335 1.5707963268 1.7739652728 2.1243706857 2.6469669131 1.4827341049 1.5707963268 1.6937793186 
1.8705049266 2.1243706857 2.4613776767 2.8286213739 1.5707963268 1.6588585487 1.7739652728 1.9258976586 2.1243706857 
2.3709992258 2.6469669131 2.9144344902 1.7563855631 1.8785697967 1.8563003522 2.0024758186 1.9913306621 1.9779583789 
2.1243706857 2.1243706857 2.1243706857 2.1243706857 2.2408671392 2.2510113037 2.2630782103 2.2776669786 2.295651703 
2.3494282469 2.3680303173 2.3899057108 2.4159740166 2.4475202889 2.486385773 2.448570738 2.4736848652 2.5028148801 
2.5369440334 2.5773755784 2.6258554882 2.6847397011 2.5377803997 2.5675431237 2.6015718084 2.6407557529 2.6862098746 
2.7393287203 2.8018393335 2.8758309421 1.6743954455 1.6743954455 1.7840462375 1.6743954455 1.7840462375 1.8974821136 
1.6743954455 1.7840462375 1.8974821136 2.0119052671 1.6743954455 1.7840462375 1.8974821136 2.0119052671 2.1243706857 
1.6743954455 1.7840462375 1.8974821136 2.0119052671 2.1243706857 2.232221744 1.6743954455 1.7840462375 1.8974821136 
2.0119052671 2.1243706857 2.232221744 2.3334263672 1.6743954455 1.7840462375 1.8974821136 2.0119052671 2.1243706857 
2.232221744 2.3334263672 2.426721652 1.4671972081 1.3575464161 1.4671972081 1.24411054 1.3575464161 1.4671972081 
1.1296873865 1.24411054 1.3575464161 1.4671972081 1.0172219679 1.1296873865 1.24411054 1.3575464161 1.4671972081 
0.90937090954 1.0172219679 1.1296873865 1.24411054 1.3575464161 1.4671972081 0.80816628637 0.90937090954 1.0172219679 
1.1296873865 1.24411054 1.3575464161 1.4671972081 0.71487100155 0.80816628637 0.90937090954 1.0172219679 1.1296873865 
1.24411054 1.3575464161 1.4671972081 0.60381225391 0.57404952988 0.69302191562 0.54002084522 0.66790778838 0.79216440667 
0.50083690068 0.63877777351 0.77356233629 0.90072551443 0.45538277901 0.60464862014 0.75168694275 0.89058134991 1.0172219679 
0.40226393329 0.56421707518 0.72561863695 0.87851444325 1.0172219679 1.139116835 0.33975332011 0.51573716537 0.69407236469 
0.86392567495 1.0172219679 1.1502619915 1.2630228569 0.26576171152 0.45685295248 0.6552068806 0.84594095064 1.0172219679 
1.1636342747 1.2852923014 1.3852070904 0.22715816343 0.3129712797 0.49462574053 0.49462574053 0.68021497688 0.77059342779 
1.0172219679 1.0172219679 1.0172219679 1.0172219679 2.1243706857 1.5707963268 1.3676273807 1.271087727 1.2156949949 
2.6469669131 2.1243706857 1.7739652728 1.5707963268 1.447813335 1.3676273807 2.8286213739 2.4613776767 2.1243706857 
1.8705049266 1.6937793186 1.5707963268 1.4827341049 2.9144344902 2.6469669131 2.3709992258 2.1243706857 1.9258976586 
1.7739652728 1.6588585487 1.5707963268 1.7563855631 1.8563003522 1.8785697967 1.9779583789 1.9913306621 2.0024758186 
2.1243706857 2.1243706857 2.1243706857 2.1243706857 2.295651703 2.2776669786 2.2630782103 2.2510113037 2.2408671392 
2.486385773 2.4475202889 2.4159740166 2.3899057108 2.3680303173 2.3494282469 2.6847397011 2.6258554882 2.5773755784 
2.5369440334 2.5028148801 2.4736848652 2.448570738 2.8758309421 2.8018393335 2.7393287203 2.6862098746 2.6407557529 
2.6015718084 2.5675431237 2.5377803997 5.8604937156 5.901393709 5.9723133995 5.9473927383 6.0216547488 6.0927478736 
5.9992719463 6.0767621038 6.1501452836 6.2190157008 6.0578962336 6.1383094565 6.2134963469 0 0.064169606361 
6.1241815303 6.206940195 6.2831853072 0.069688960264 0.13304002361 0.19043743361 6.1990255847 0 0.07624511221 
0.14487585072 0.20642320337 0.26153055843 0.3108719077 0 0.084159722458 0.15900377685 0.22528907359 0.28391336087 
0.3357925689 0.38179159818 0.42269159155 5.8604937156 5.9723133995 5.901393709 6.0927478736 6.0216547488 5.9473927383 
6.2190157008 6.1501452836 6.0767621038 5.9992719463 0.064169606361 0 6.2134963469 6.1383094565 6.0578962336 
0.19043743361 0.13304002361 0.069688960264 6.2831853072 6.206940195 6.1241815303 0.3108719077 0.26153055843 0.20642320337 
0.14487585072 0.07624511221 6.2831853072 6.1990255847 0.42269159155 0.38179159818 0.3357925689 0.28391336087 0.22528907359 
0.15900377685 0.084159722458 0 5.6793730533 5.7091357773 5.5901633916 5.743164462 5.6152775188 5.4910209005 
5.7823484065 5.6444075337 5.5096229709 5.3824597928 5.8278025282 5.678536687 5.5314983644 5.3926039573 5.2659633393 
5.8809213739 5.718968232 5.5575666702 5.4046708639 5.2659633393 5.1440684722 5.9434319871 5.7674481418 5.5891129425 
5.4192596322 5.2659633393 5.1329233157 5.0201624502 6.0174235957 5.8263323547 5.6279784266 5.4372443565 5.2659633393 
5.1195510325 4.9978930058 4.8979782167 1.3852070904 1.2852923014 1.2630228569 1.1636342747 1.1502619915 1.139116835 
1.0172219679 1.0172219679 1.0172219679 1.0172219679 0.84594095064 0.86392567495 0.87851444325 0.89058134991 0.90072551443 
0.6552068806 0.69407236469 0.72561863695 0.75168694275 0.77356233629 0.79216440667 0.45685295248 0.51573716537 0.56421707518 
0.60464862014 0.63877777351 0.66790778838 0.69302191562 0.26576171152 0.33975332011 0.40226393329 0.45538277901 0.50083690068 
0.54002084522 0.57404952988 0.60381225391 
_paraPhiHalf 1 1002 double
0 3.1415926536 0 3.1415926536 1.5707963268 1.5707963268 1.5707963268 1.5707963268 2.5880182947 
0.5535743589 2.5880182947 0.5535743589 0 0 0 0 3.1415926536 3.1415926536 
3.1415926536 3.1415926536 3.1415926536 0.17788134 0.38438696014 0.60631181711 0.82323535693 1.0172219679 1.1799687454 
1.3118704726 1.4175000338 1.5022335207 0.17788134 0.38438696014 0.60631181711 0.82323535693 1.0172219679 1.1799687454 
1.3118704726 1.4175000338 1.5022335207 0.093902416448 0.17615329733 0.2478725152 0.31035131605 0.36486382811 0.41257334776 
0.45449736604 0.4915044461 0.52432611754 0.093902416448 0.17615329733 0.2478725152 0.31035131605 0.36486382811 0.41257334776 
0.45449736604 0.4915044461 0.52432611754 2.9637113136 2.7572056934 2.5352808365 2.3183572967 2.1243706857 1.9616239082 
1.829722181 1.7240926197 1.6393591329 2.9637113136 2.7572056934 2.5352808365 2.3183572967 2.1243706857 1.9616239082 
1.829722181 1.7240926197 1.6393591329 3.0476902371 2.9654393563 2.8937201384 2.8312413375 2.7767288255 2.7290193058 
2.6870952876 2.6500882075 2.617266536 3.0476902371 2.9654393563 2.8937201384 2.8312413375 2.7767288255 2.7290193058 
2.6870952876 2.6500882075 2.617266536 0 0 0 0 3.1415926536 3.1415926536 
3.1415926536 3.1415926536 3.1415926536 0.17788134 0.38438696014 0.60631181711 0.82323535693 1.0172219679 1.1799687454 
1.3118704726 1.4175000338 1.5022335207 0.17788134 0.38438696014 0.60631181711 0.82323535693 1.0172219679 1.1799687454 
1.3118704726 1.4175000338 1.5022335207 0.093902416448 0.17615329733 0.2478725152 0.31035131605 0.36486382811 0.41257334776 
0.45449736604 0.4915044461 0.52432611754 0.093902416448 0.17615329733 0.2478725152 0.31035131605 0.36486382811 0.41257334776 
0.45449736604 0.4915044461 0.52432611754 2.9637113136 2.7572056934 2.5352808365 2.3183572967 2.1243706857 1.9616239082 
1.829722181 1.7240926197 1.6393591329 2.9637113136 2.7572056934 2.5352808365 2.3183572967 2.1243706857 1.9616239082 
1.829722181 1.7240926197 1.6393591329 3.0476902371 2.9654393563 2.8937201384 2.8312413375 2.7767288255 2.7290193058 
2.6870952876 2.6500882075 2.617266536 3.0476902371 2.9654393563 2.8937201384 2.8312413375 2.7767288255 2.7290193058 
2.6870952876 2.6500882075 2.617266536 1.5707963268 1.5707963268 1.5707963268 1.5707963268 1.5707963268 1.5707963268 
1.5707963268 1.5707963268 1.5707963268 1.6743954455 1.7840462375 1.8974821136 2.0119052671 2.1243706857 2.232221744 
2.3334263672 2.426721652 2.5115728246 1.4671972081 1.3575464161 1.24411054 1.1296873865 1.0172219679 0.90937090954 
0.80816628637 0.71487100155 0.63001982895 1.6743954455 1.7840462375 1.8974821136 2.0119052671 2.1243706857 2.232221744 
2.3334263672 2.426721652 2.5115728246 1.4671972081 1.3575464161 1.24411054 1.1296873865 1.0172219679 0.90937090954 
0.80816628637 0.71487100155 0.63001982895 1.5707963268 1.5707963268 1.5707963268 1.5707963268 1.5707963268 1.5707963268 
1.5707963268 1.5707963268 1.5707963268 1.6743954455 1.7840462375 1.8974821136 2.0119052671 2.1243706857 2.232221744 
2.3334263672 2.426721652 2.5115728246 1.4671972081 1.3575464161 1.24411054 1.1296873865 1.0172219679 0.90937090954 
0.80816628637 0.71487100155 0.63001982895 1.6743954455 1.7840462375 1.8974821136 2.0119052671 2.1243706857 2.232221744 
2.3334263672 2.426721652 2.5115728246 1.4671972081 1.3575464161 1.24411054 1.1296873865 1.0172219679 0.90937090954 
0.80816628637 0.71487100155 0.63001982895 2.6824132222 2.7864913217 2.8992382033 3.0186096618 3.1415926536 3.0186096618 
2.8992382033 2.7864913217 2.6824132222 0.45917943135 0.35510133185 0.2423544503 0.12298299178 0 0.12298299178 
0.2423544503 0.35510133185 0.45917943135 0.22715816343 0.49462574053 0.3129712797 0.77059342779 0.68021497688 0.49462574053 
1.0172219679 1.0172219679 1.0172219679 1.0172219679 1.2156949949 1.271087727 1.3676273807 1.5707963268 2.1243706857 
1.3676273807 1.447813335 1.5707963268 1.7739652728 2.1243706857 2.6469669131 1.4827341049 1.5707963268 1.6937793186 
1.8705049266 2.1243706857 2.4613776767 2.8286213739 1.5707963268 1.6588585487 1.7739652728 1.9258976586 2.1243706857 
2.3709992258 2.6469669131 2.9144344902 0.26576171152 0.33975332011 0.45685295248 0.40226393329 0.51573716537 0.6552068806 
0.45538277901 0.56421707518 0.69407236469 0.84594095064 0.50083690068 0.60464862014 0.72561863695 0.86392567495 1.0172219679 
0.54002084522 0.63877777351 0.75168694275 0.87851444325 1.0172219679 1.1636342747 0.57404952988 0.66790778838 0.77356233629 
0.89058134991 1.0172219679 1.1502619915 1.2852923014 0.60381225391 0.69302191562 0.79216440667 0.90072551443 1.0172219679 
1.139116835 1.2630228569 1.3852070904 0.71487100155 0.80816628637 0.80816628637 0.90937090954 0.90937090954 0.90937090954 
1.0172219679 1.0172219679 1.0172219679 1.0172219679 1.1296873865 1.1296873865 1.1296873865 1.1296873865 1.1296873865 
1.24411054 1.24411054 1.24411054 1.24411054 1.24411054 1.24411054 1.3575464161 1.3575464161 1.3575464161 
1.3575464161 1.3575464161 1.3575464161 1.3575464161 1.4671972081 1.4671972081 1.4671972081 1.4671972081 1.4671972081 
1.4671972081 1.4671972081 1.4671972081 1.6743954455 1.6743954455 1.7840462375 1.6743954455 1.7840462375 1.8974821136 
1.6743954455 1.7840462375 1.8974821136 2.0119052671 1.6743954455 1.7840462375 1.8974821136 2.0119052671 2.1243706857 
1.6743954455 1.7840462375 1.8974821136 2.0119052671 2.1243706857 2.232221744 1.6743954455 1.7840462375 1.8974821136 
2.0119052671 2.1243706857 2.232221744 2.3334263672 1.6743954455 1.7840462375 1.8974821136 2.0119052671 2.1243706857 
2.232221744 2.3334263672 2.426721652 1.7563855631 1.8785697967 1.8563003522 2.0024758186 1.9913306621 1.9779583789 
2.1243706857 2.1243706857 2.1243706857 2.1243706857 2.2408671392 2.2510113037 2.2630782103 2.2776669786 2.295651703 
2.3494282469 2.3680303173 2.3899057108 2.4159740166 2.4475202889 2.486385773 2.448570738 2.4736848652 2.5028148801 
2.5369440334 2.5773755784 2.6258554882 2.6847397011 2.5377803997 2.5675431237 2.6015718084 2.6407557529 2.6862098746 
2.7393287203 2.8018393335 2.8758309421 2.718901062 2.8307207459 2.7598010554 2.95115522 2.8800620952 2.8058000847 
3.0774230472 3.00855263 2.9351694502 2.8576792927 3.0774230472 3.1415926536 3.0719036933 2.9967168029 2.91630358 
2.95115522 3.00855263 3.0719036933 3.1415926536 3.0653475414 2.9825888767 2.8307207459 2.8800620952 2.9351694502 
2.9967168029 3.0653475414 3.1415926536 3.0574329311 2.718901062 2.7598010554 2.8058000847 2.8576792927 2.91630358 
2.9825888767 3.0574329311 3.1415926536 2.718901062 2.7598010554 2.8307207459 2.8058000847 2.8800620952 2.95115522 
2.8576792927 2.9351694502 3.00855263 3.0774230472 2.91630358 2.9967168029 3.0719036933 3.1415926536 3.0774230472 
2.9825888767 3.0653475414 3.1415926536 3.0719036933 3.00855263 2.95115522 3.0574329311 3.1415926536 3.0653475414 