# vtk DataFile Version 5.1
vtk output
ASCII
DATASET POLYDATA
POINTS 100 float
-3.59397 4.72509 1.43775 -3.59615 4.72093 1.43272 -3.60452 4.70602 1.42096 
-3.62048 4.68022 1.40331 -3.64609 4.64325 1.38103 -3.6837 4.59474 1.35566 
-3.7355 4.5342 1.32877 -3.80325 4.46102 1.30182 -3.88796 4.3745 1.27591 
-3.98979 4.274 1.25172 -4.10814 4.15899 1.22944 -4.24178 4.02919 1.20875 
-4.38916 3.8847 1.18893 -4.54871 3.72605 1.16899 -4.71907 3.55424 1.14781 
-4.8993 3.37067 1.12429 -5.08887 3.17706 1.09751 -5.28767 2.97529 1.06683 
-5.49583 2.7672 1.03192 -5.71353 2.55443 0.992841 -5.94086 2.33828 0.949937 
-6.17769 2.11961 0.903822 -6.42363 1.89887 0.855268 -6.67812 1.67609 0.805092 
-6.94051 1.45108 0.754046 -7.21023 1.2235 0.702709 -7.48689 0.993073 0.651394 
-7.77033 0.759687 0.600084 -8.06061 0.523478 0.548392 -8.35786 0.284863 0.495574 
-8.66218 0.0445115 0.440574 -8.97342 -0.196729 0.38212 -9.29112 -0.437926 0.318855 
-9.6145 -0.678164 0.249497 -9.94258 -0.916627 0.17301 -10.2745 -1.15266 0.0887552 
-10.6097 -1.38579 -0.0033885 -10.9484 -1.61578 -0.102972 -11.2919 -1.84262 -0.209005 
-11.6427 -2.06655 -0.320068 -12.004 -2.28817 -0.434512 -12.3799 -2.50848 -0.550716 
-12.7747 -2.72904 -0.667372 -13.1917 -2.95204 -0.783755 -13.6331 -3.18039 -0.899928 
-14.0991 -3.41769 -1.01685 -14.5873 -3.6682 -1.13633 -15.093 -3.93655 -1.26091 
-15.6092 -4.22749 -1.3935 -16.1273 -4.54545 -1.53704 -16.638 -4.89415 -1.69408 
-17.1324 -5.27614 -1.86635 -17.603 -5.69252 -2.05445 -18.0441 -6.14273 -2.2577 
-18.4531 -6.62454 -2.47411 -18.8296 -7.13428 -2.70058 -19.1759 -7.66712 -2.93321 
-19.4958 -8.21762 -3.16776 -19.7943 -8.78027 -3.40017 -20.0759 -9.34999 -3.62696 
-20.3445 -9.92261 -3.84568 -20.6027 -10.4952 -4.05507 -20.851 -11.0659 -4.25515 
-21.0884 -11.6345 -4.44707 -21.3128 -12.2014 -4.63283 -21.5211 -12.7678 -4.81485 
-21.7103 -13.3349 -4.99565 -21.878 -13.9039 -5.17733 -22.0225 -14.4753 -5.36137 
-22.1438 -15.0488 -5.54842 -22.2427 -15.6234 -5.7383 -22.3211 -16.1973 -5.93009 
-22.3814 -16.7681 -6.1224 -22.426 -17.3329 -6.31365 -22.4574 -17.8892 -6.50236 
-22.4773 -18.4341 -6.6874 -22.4869 -18.9653 -6.86812 -22.4873 -19.481 -7.04444 
-22.4793 -19.9798 -7.21672 -22.4637 -20.4606 -7.38564 -22.4419 -20.9225 -7.55191 
-22.416 -21.3652 -7.71609 -22.3884 -21.7882 -7.87834 -22.362 -22.191 -8.03825 
-22.3401 -22.5732 -8.19484 -22.3253 -22.9346 -8.34659 -22.3199 -23.2748 -8.49154 
-22.3249 -23.5934 -8.62754 -22.3406 -23.8901 -8.75251 -22.3658 -24.1647 -8.86461 
-22.3985 -24.4167 -8.96254 -22.4361 -24.6458 -9.04561 -22.4758 -24.8513 -9.11381 
-22.5146 -25.0324 -9.16784 -22.5504 -25.1883 -9.20891 -22.5812 -25.3178 -9.23863 
-22.6059 -25.4198 -9.25875 -22.6237 -25.4934 -9.27098 -22.6344 -25.5376 -9.27672 
-22.6378 -25.5521 -9.27692 
LINES 2 100
OFFSETS vtktypeint64
0 100 
CONNECTIVITY vtktypeint64
0 1 2 3 4 5 6 7 8 
9 10 11 12 13 14 15 16 17 
18 19 20 21 22 23 24 25 26 
27 28 29 30 31 32 33 34 35 
36 37 38 39 40 41 42 43 44 
45 46 47 48 49 50 51 52 53 
54 55 56 57 58 59 60 61 62 
63 64 65 66 67 68 69 70 71 
72 73 74 75 76 77 78 79 80 
81 82 83 84 85 86 87 88 89 
90 91 92 93 94 95 96 97 98 
99 
POINT_DATA 100
FIELD FieldData 3
_theta 1 100 double
0 0.031733259127 0.063466518254 0.095199777382 0.12693303651 0.15866629564 0.19039955476 0.22213281389 0.25386607302 
0.28559933214 0.31733259127 0.3490658504 0.38079910953 0.41253236865 0.44426562778 0.47599888691 0.50773214603 0.53946540516 
0.57119866429 0.60293192342 0.63466518254 0.66639844167 0.6981317008 0.72986495992 0.76159821905 0.79333147818 0.82506473731 
0.85679799643 0.88853125556 0.92026451469 0.95199777382 0.98373103294 1.0154642921 1.0471975512 1.0789308103 1.1106640695 
1.1423973286 1.1741305877 1.2058638468 1.237597106 1.2693303651 1.3010636242 1.3327968833 1.3645301425 1.3962634016 
1.4279966607 1.4597299198 1.491463179 1.5231964381 1.5549296972 1.5866629564 1.6183962155 1.6501294746 1.6818627337 
1.7135959929 1.745329252 1.7770625111 1.8087957702 1.8405290294 1.8722622885 1.9039955476 1.9357288068 1.9674620659 
1.999195325 2.0309285841 2.0626618433 2.0943951024 2.1261283615 2.1578616206 2.1895948798 2.2213281389 2.253061398 
2.2847946572 2.3165279163 2.3482611754 2.3799944345 2.4117276937 2.4434609528 2.4751942119 2.506927471 2.5386607302 
2.5703939893 2.6021272484 2.6338605076 2.6655937667 2.6973270258 2.7290602849 2.7607935441 2.7925268032 2.8242600623 
2.8559933214 2.8877265806 2.9194598397 2.9511930988 2.982926358 3.0146596171 3.0463928762 3.0781261353 3.1098593945 
3.1415926536 
_radius 1 100 double
1.1548454303e-14 0.27914723875 0.5563537672 0.82999158855 1.0989612187 1.362791109 1.6215832199 1.8758139606 2.1260356368 
2.3725489243 2.6151240527 2.8528360357 3.0840525674 3.3065800527 3.5179408516 3.7157288281 3.897975286 4.0634562958 
4.2118851307 4.3439565375 4.4612374047 4.5659254863 4.6605196782 4.7474588841 4.828790056 4.9059190708 4.9794815262 
5.0493468061 5.1147422339 5.1744607273 5.2271011037 5.2712887937 5.3058355385 5.3298150411 5.3425516745 5.3435372129 
5.3323046361 5.3082978038 5.2707799448 5.218820478 5.1513873656 5.0675515127 4.9667830736 4.8492913154 4.7163366194 
4.5704337145 4.4153763528 4.2560468365 4.0980225334 3.9470417019 3.8084254106 3.6865588426 3.5845140079 3.5038585159 
3.4446560698 3.4056343934 3.3844803912 3.3782179617 3.3836223924 3.3976200998 3.4176165961 3.4416985418 3.4686738065 
3.4979450488 3.5292508088 3.5623433013 3.5966907836 3.6312843704 3.6645957859 3.6946876332 3.7194390382 3.7368281847 
3.7452102805 3.7435388489 3.7314925169 3.7094842777 3.6785453749 3.6400928929 3.5956082488 3.5462703369 3.492600098 
3.4341818186 3.3695271475 3.2961338985 3.2107585643 3.1098733591 2.9902291257 2.8494110546 2.6862667954 2.5011099888 
2.2956519956 2.0726793382 1.8355582323 1.5876931319 1.3320780202 1.0710479342 0.80626717375 0.53890258811 0.26986540554 
4.3248252207e-14 
_area 1 100 double
0 0.22084739861 0.87610719889 1.9456255939 3.4008068248 5.2101224071 7.3437902243 9.7762897335 12.486391308 
15.455173431 18.662663489 22.083476666 25.681846067 29.407240426 33.192882897 36.959510605 40.624763555 44.115720652 
47.380447256 50.395022187 53.164619638 55.719295304 58.106111303 60.379197318 62.589114249 64.773048893 66.947667152 
69.106162994 71.219866509 73.243294893 75.120659603 76.792016218 78.198171914 79.28442874 80.003609681 80.318494758 
80.203234613 79.643105503 78.6324952 77.172208036 75.268329948 72.934743579 70.199370097 67.111597676 63.747112349 
60.207219671 56.611983085 53.088755063 49.758713894 46.7236143 44.054728075 41.787026296 39.920911098 38.429515794 
37.267884294 36.383390836 35.727394276 35.264829089 34.976972654 34.855182436 34.889027477 35.057908647 35.333323126 
35.688659185 36.107067468 36.581168294 37.104748289 37.661105839 38.214502544 38.710051247 39.083339107 39.276128026 
39.251680924 39.003841756 38.556654001 37.954323794 37.244572812 36.462594819 35.624663484 34.733288155 33.784943626 
32.771305323 31.673986187 30.458981706 29.076930104 27.471727618 25.595641844 23.425860085 20.97674861 18.303795878 
15.498106185 12.673270825 9.9485679379 7.4331059463 5.2146424609 3.3548789728 1.8908697901 0.84058446123 0.21007255301 
9.7037785803e-14 
