# vtk DataFile Version 5.1
vtk output
ASCII
DATASET POLYDATA
POINTS 100 float
-3.65588 4.57154 1.2499 -3.66112 4.56394 1.24626 -3.67739 4.53953 1.24013 
-3.7054 4.49905 1.23266 -3.74613 4.44361 1.22554 -3.80061 4.37449 1.22069 
-3.86961 4.2929 1.21997 -3.95345 4.1998 1.22484 -4.05188 4.0958 1.2362 
-4.16402 3.98111 1.25429 -4.28848 3.85562 1.27863 -4.42356 3.71903 1.30823 
-4.56751 3.57106 1.34177 -4.71881 3.41161 1.37779 -4.8764 3.24096 1.41497 
-5.0398 3.05979 1.45226 -5.20912 2.86918 1.48897 -5.38497 2.67051 1.52476 
-5.56826 2.4653 1.55956 -5.75995 2.25497 1.59343 -5.96078 2.04072 1.62642 
-6.17112 1.82333 1.65849 -6.39083 1.6032 1.68942 -6.61928 1.38029 1.7188 
-6.85552 1.15434 1.74616 -7.09844 0.924935 1.77102 -7.34705 0.691728 1.79302 
-7.60066 0.45455 1.81203 -7.85909 0.213483 1.82818 -8.12268 -0.0311462 1.84186 
-8.39226 -0.278846 1.85365 -8.66901 -0.529091 1.86419 -8.9542 -0.781457 1.87406 
-9.24898 -1.03575 1.88373 -9.55415 -1.29203 1.89342 -9.8701 -1.55063 1.90319 
-10.1967 -1.81204 1.91299 -10.5336 -2.07673 1.92276 -10.8801 -2.345 1.93256 
-11.2356 -2.61688 1.94273 -11.6 -2.892 1.95386 -11.9732 -3.16971 1.96677 
-12.356 -3.44922 1.98241 -12.7495 -3.72989 2.00159 -13.1547 -4.01157 2.02479 
-13.573 -4.29491 2.05186 -14.0047 -4.58165 2.0819 -14.4498 -4.87469 2.11317 
-14.9068 -5.17813 2.14314 -15.3731 -5.4969 2.16875 -15.8449 -5.83646 2.18673 
-16.3173 -6.20217 2.19398 -16.7848 -6.59872 2.18797 -17.2415 -7.02962 2.16714 
-17.6817 -7.49673 2.13104 -18.1006 -8.00008 2.08048 -18.4942 -8.53782 2.01733 
-18.8595 -9.10647 1.94432 -19.195 -9.7013 1.86459 -19.5002 -10.3169 1.78133 
-19.7756 -10.9476 1.69731 -20.0224 -11.5882 1.61461 -20.2421 -12.2343 1.5344 
-20.4362 -12.8822 1.45692 -20.6063 -13.5294 1.38158 -20.7536 -14.1744 1.30721 
-20.8793 -14.8163 1.23235 -20.9841 -15.4543 1.15556 -21.069 -16.0881 1.07566 
-21.1346 -16.717 0.991927 -21.182 -17.34 0.904172 -21.2123 -17.9559 0.812698 
-21.2269 -18.5631 0.71821 -21.2275 -19.16 0.621663 -21.2159 -19.7449 0.524113 
-21.1941 -20.3163 0.426592 -21.1641 -20.8731 0.33004 -21.1283 -21.4143 0.235286 
-21.0885 -21.9393 0.143079 -21.047 -22.4474 0.0541519 -21.0058 -22.938 -0.0307298 
-20.9669 -23.4105 -0.110732 -20.9323 -23.8636 -0.184966 -20.9037 -24.2962 -0.252549 
-20.8829 -24.7063 -0.312695 -20.871 -25.0923 -0.364833 -20.869 -25.4522 -0.40871 
-20.8773 -25.7842 -0.444451 -20.8958 -26.087 -0.472581 -20.9237 -26.3595 -0.493967 
-20.9596 -26.6013 -0.509719 -21.0018 -26.8125 -0.521046 -21.0477 -26.9939 -0.529106 
-21.095 -27.1465 -0.534875 -21.1407 -27.2718 -0.539064 -21.1824 -27.3714 -0.54209 
-21.2175 -27.4468 -0.544107 -21.2439 -27.4994 -0.545086 -21.2602 -27.5302 -0.544918 
-21.2654 -27.54 -0.543511 
LINES 2 100
OFFSETS vtktypeint64
0 100 
CONNECTIVITY vtktypeint64
0 1 2 3 4 5 6 7 8 
9 10 11 12 13 14 15 16 17 
18 19 20 21 22 23 24 25 26 
27 28 29 30 31 32 33 34 35 
36 37 38 39 40 41 42 43 44 
45 46 47 48 49 50 51 52 53 
54 55 56 57 58 59 60 61 62 
63 64 65 66 67 68 69 70 71 
72 73 74 75 76 77 78 79 80 
81 82 83 84 85 86 87 88 89 
90 91 92 93 94 95 96 97 98 
99 
POINT_DATA 100
FIELD FieldData 3
_theta 1 100 double
0 0.031733259127 0.063466518254 0.095199777382 0.12693303651 0.15866629564 0.19039955476 0.22213281389 0.25386607302 
0.28559933214 0.31733259127 0.3490658504 0.38079910953 0.41253236865 0.44426562778 0.47599888691 0.50773214603 0.53946540516 
0.57119866429 0.60293192342 0.63466518254 0.66639844167 0.6981317008 0.72986495992 0.76159821905 0.79333147818 0.82506473731 
0.85679799643 0.88853125556 0.92026451469 0.95199777382 0.98373103294 1.0154642921 1.0471975512 1.0789308103 1.1106640695 
1.1423973286 1.1741305877 1.2058638468 1.237597106 1.2693303651 1.3010636242 1.3327968833 1.3645301425 1.3962634016 
1.4279966607 1.4597299198 1.491463179 1.5231964381 1.5549296972 1.5866629564 1.6183962155 1.6501294746 1.6818627337 
1.7135959929 1.745329252 1.7770625111 1.8087957702 1.8405290294 1.8722622885 1.9039955476 1.9357288068 1.9674620659 
1.999195325 2.0309285841 2.0626618433 2.0943951024 2.1261283615 2.1578616206 2.1895948798 2.2213281389 2.253061398 
2.2847946572 2.3165279163 2.3482611754 2.3799944345 2.4117276937 2.4434609528 2.4751942119 2.506927471 2.5386607302 
2.5703939893 2.6021272484 2.6338605076 2.6655937667 2.6973270258 2.7290602849 2.7607935441 2.7925268032 2.8242600623 
2.8559933214 2.8877265806 2.9194598397 2.9511930988 2.982926358 3.0146596171 3.0463928762 3.0781261353 3.1098593945 
3.1415926536 
_radius 1 100 double
1.039586187e-14 0.27395009729 0.54628110868 0.81555734818 1.0807804345 1.341424367 1.5973225807 1.8484566226 2.0947270146 
2.3357823721 2.5709482237 2.7992530723 3.0195187935 3.2304761394 3.430878521 3.6196043637 3.7957483371 3.9587013494 
4.1082125932 4.2444210163 4.3678433301 4.4793122129 4.5798695019 4.6706309145 4.7526471795 4.8267885721 4.8936747111 
4.9536600059 5.0068702692 5.0532725144 5.0927530875 5.1251820412 5.1504521641 5.1684929464 5.1792659407 5.1827458255 
5.178885197 5.1675588491 5.148490678 5.1211812094 5.0848665017 5.0385389097 4.9810431794 4.9112361838 4.8281813444 
4.7313492031 4.6208075537 4.49739207 4.3628428406 4.2198818546 4.0722072512 3.9243962499 3.7817230104 3.6498866085 
3.5346081971 3.4410395721 3.3730031631 3.3322766633 3.3182707339 3.3282841875 3.358176649 3.403138674 3.4583265883 
3.5192773533 3.5821191909 3.6436412778 3.7012932766 3.7531628117 3.797943268 3.8348782537 3.8636671446 3.8843342704 
3.897084902 3.9021781304 3.8998369343 3.8901975049 3.8732830752 3.8489782837 3.8169828128 3.7767393349 3.7273541843 
3.6675457386 3.5956547849 3.5097350894 3.4077218063 3.2876592506 3.1479594288 2.9876553381 2.8066061846 2.6056077071 
2.3863667083 2.1513220009 1.9033344774 1.6453148049 1.3798867117 1.109177214 0.83477819262 0.55785511464 0.27932318315 
2.557947692e-14 
_area 1 100 double
0 0.22957730271 0.91098909371 2.0233608851 3.5352223014 5.4086069392 7.6034480544 10.081488564 12.808985991 
15.757581642 18.902996763 22.221795403 25.687146564 29.264999736 32.912104698 36.576840589 40.203044354 43.736176844 
47.13044976 50.355105222 53.397958375 56.26465437 58.973001279 61.54328963 63.987338817 66.300175047 68.457742184 
70.421802365 72.150305933 73.60937649 74.782453636 75.673235797 76.301580128 76.694501296 76.876317526 76.861781938 
76.654131853 76.247446166 75.630535311 74.789218731 73.706148363 72.360826951 70.733691488 68.814972572 66.613942968 
64.162255009 61.508529156 58.707229965 55.808255237 52.852580085 49.876123223 46.921588451 44.055471886 41.383389194 
39.050445502 37.20422978 35.930000875 35.225407015 35.02583838 35.236885833 35.75735794 36.493240136 37.365083171 
38.309613478 39.274917352 40.211234276 41.064407418 41.778515081 42.305579778 42.615439873 42.702391924 42.587702933 
42.315974434 41.943567036 41.520955528 41.075466673 40.602324937 40.06853518 39.427193806 38.633306429 37.652288834 
36.459393041 35.034882386 33.361101951 31.424714204 29.223207513 26.771954418 24.107928675 21.288257345 18.38452193 
15.475445248 12.640458597 9.95520858 7.4887366644 5.3016861062 3.4451837962 1.9603338997 0.87827226011 0.22060852981 
1.2480374739e-13 
