# vtk DataFile Version 5.1
vtk output
ASCII
DATASET POLYDATA
POINTS 1002 float
-10.69 0.310945 -2.13402 -24.5285 -14.039 -5.04179 -9.7202 -2.67214 3.53278 
-23.8405 -14.8109 -0.551239 -14.0651 -6.93565 -2.77779 -14.3367 -7.91011 0.432331 
-21.0762 -3.20352 -0.516177 -21.1868 -3.74335 3.13346 -22.3486 -26.6312 -4.97423 
-1.8946 -2.01394 -0.25395 -28.5419 -19.9239 -3.48305 -10.3184 5.16786 2.36001 
-11.7368 -0.353364 -2.22033 -12.9295 -1.14235 -2.27554 -14.2713 -2.06904 -2.29757 
-15.9398 -3.23164 -2.32065 -18.0399 -4.79921 -2.46982 -20.2217 -6.77429 -2.85898 
-21.9748 -8.86868 -3.44349 -23.1627 -10.7888 -4.07935 -23.9556 -12.4856 -4.63367 
-10.4899 -0.148193 -2.39866 -10.275 -0.648668 -2.65138 -10.116 -1.32943 -2.8576 
-10.1715 -2.26544 -3.02847 -10.4455 -3.25071 -3.15434 -10.791 -4.09765 -3.17143 
-11.252 -4.88888 -3.0941 -11.9961 -5.67714 -3.00742 -12.9944 -6.37076 -2.91685 
-11.5379 0.392364 -1.9443 -12.5371 0.430136 -1.77248 -13.6593 0.288921 -1.57409 
-14.7903 -0.0619611 -1.29934 -15.9204 -0.499912 -1.04414 -17.0928 -1.01496 -0.883187 
-18.2142 -1.64574 -0.729204 -19.2239 -2.26292 -0.584736 -20.1776 -2.76581 -0.526937 
-9.56829 0.61976 -2.18324 -8.36964 0.838934 -2.19019 -7.10347 0.897753 -2.13955 
-5.79698 0.833811 -2.05896 -4.56202 0.691954 -1.95737 -3.56711 0.388721 -1.77933 
-2.8517 -0.125224 -1.46384 -2.33506 -0.761955 -1.0409 -2.00193 -1.41447 -0.617232 
-10.2504 0.983599 -1.89068 -9.88819 1.67452 -1.61501 -9.60816 2.37087 -1.30468 
-9.42483 3.04035 -0.892043 -9.36505 3.61564 -0.36341 -9.42447 4.12469 0.15414 
-9.59722 4.62107 0.612893 -9.85549 5.00971 1.12542 -10.1161 5.18408 1.73691 
-24.0735 -13.862 -4.99823 -23.5283 -13.5507 -4.87955 -22.806 -13.1031 -4.71329 
-21.9761 -12.4712 -4.50534 -21.1787 -11.6163 -4.16368 -20.2611 -10.5406 -3.64049 
-18.9562 -9.2871 -3.11438 -17.3177 -8.0903 -2.81158 -15.6138 -7.27936 -2.74731 
-24.6504 -13.1518 -4.79933 -24.7168 -12.107 -4.46157 -24.6614 -10.9119 -4.01328 
-24.4366 -9.62223 -3.4876 -24.0205 -8.29899 -2.95136 -23.4622 -7.02066 -2.40867 
-22.8565 -5.87779 -1.84497 -22.2392 -4.8824 -1.32027 -21.6282 -3.99169 -0.885582 
-24.7316 -15.6026 -5.35502 -24.8534 -17.4087 -5.62921 -24.8235 -19.3144 -5.8762 
-24.5776 -21.218 -6.12499 -24.1683 -23.1624 -6.36649 -23.756 -24.942 -6.48262 
-23.3788 -26.1485 -6.35009 -22.961 -26.7377 -5.98617 -22.5665 -26.8858 -5.4961 
-25.142 -15.0511 -5.22204 -25.8104 -16.0966 -5.35447 -26.3971 -17.2134 -5.45255 
-26.8181 -18.3859 -5.4486 -27.2108 -19.3986 -5.30054 -27.6222 -19.9952 -5.09624 
-27.9589 -20.194 -4.85345 -28.2369 -20.2048 -4.48565 -28.4554 -20.1258 -3.99845 
-10.9258 -3.40425 3.5931 -12.3087 -4.17624 3.61106 -13.9149 -4.8762 3.46553 
-15.7042 -5.57983 3.08268 -17.5475 -6.63018 2.6032 -19.3232 -8.13894 2.09202 
-20.9108 -9.78185 1.37149 -22.1947 -11.3779 0.511465 -23.1516 -13.0479 -0.162283 
-9.60903 -3.37954 3.45762 -9.6172 -4.01929 3.24013 -9.75 -4.57609 2.89849 
-9.98892 -5.14652 2.53218 -10.3939 -5.76973 2.18668 -11.0005 -6.34334 1.82373 
-11.7358 -6.78633 1.43465 -12.5642 -7.14507 1.05993 -13.4635 -7.50779 0.727027 
-10.6304 -2.40252 3.58343 -11.6534 -2.21823 3.63311 -12.8837 -2.16665 3.72381 
-14.3747 -2.25693 3.85695 -15.9338 -2.48272 3.98318 -17.3711 -2.7734 4.06707 
-18.6529 -3.03282 4.06182 -19.7085 -3.25241 3.88406 -20.5141 -3.47955 3.53665 
-8.43983 -2.45022 3.45215 -7.15981 -2.26053 3.34069 -6.08538 -2.06474 3.10759 
-5.1798 -1.85964 2.70837 -4.22887 -1.71691 2.2881 -3.31501 -1.70376 1.91465 
-2.61302 -1.78493 1.42129 -2.10665 -1.88118 0.798216 -1.8429 -1.95872 0.222228 
-9.12455 -1.75139 3.49436 -8.59092 -0.740791 3.464 -8.15739 0.330693 3.48467 
-7.84315 1.45513 3.54656 -7.72143 2.61572 3.60947 -7.88029 3.69547 3.63067 
-8.33357 4.4965 3.54504 -9.00234 4.95355 3.28462 -9.71813 5.15248 2.85663 
-23.2747 -14.4185 -0.562611 -22.5819 -13.8871 -0.480219 -21.8312 -13.2208 -0.286963 
-21.0535 -12.3987 -0.134361 -20.1568 -11.4592 -0.0210528 -19.08 -10.5242 0.215485 
-17.8995 -9.67898 0.476075 -16.6984 -8.93937 0.574083 -15.5038 -8.33235 0.534485 
-23.938 -13.9534 -0.340694 -23.9513 -12.984 -0.0549987 -23.9324 -11.9994 0.386782 
-23.8779 -10.9793 0.950457 -23.6456 -9.78974 1.45732 -23.1943 -8.44073 1.8265 
-22.6831 -7.13983 2.16144 -22.2021 -5.973 2.52519 -21.7072 -4.84736 2.86753 
-24.0728 -16.4618 -0.850005 -24.2326 -18.2216 -1.19541 -24.2781 -20.0592 -1.5715 
-24.1075 -21.9116 -1.9183 -23.7792 -23.5148 -2.33296 -23.4767 -24.6938 -2.89688 
-23.1582 -25.5931 -3.47641 -22.7442 -26.3038 -3.99457 -22.4164 -26.6856 -4.50195 
-24.4874 -16.147 -0.725474 -25.1053 -17.4531 -0.976992 -25.7214 -18.5857 -1.25766 
-26.3596 -19.5549 -1.45318 -26.9553 -20.3152 -1.67691 -27.4007 -20.7145 -2.04364 
-27.742 -20.7895 -2.40827 -28.0882 -20.6762 -2.71766 -28.3907 -20.3884 -3.07942 
-13.8523 -7.14069 -2.62759 -13.7006 -7.30834 -2.35799 -13.6259 -7.47102 -2.05574 
-13.5836 -7.67612 -1.77042 -13.5153 -7.90639 -1.43372 -13.4813 -8.07552 -1.00466 
-13.5989 -8.12238 -0.550668 -13.8488 -8.06828 -0.152654 -14.1158 -7.98203 0.166176 
-16.0887 -7.81426 -2.64195 -17.9984 -9.36262 -2.75063 -19.4513 -11.5903 -3.25042 
-20.5192 -14.2036 -3.96406 -21.4168 -16.8584 -4.50883 -22.0903 -19.4035 -4.77766 
-22.445 -21.7841 -4.94233 -22.5193 -23.8704 -5.069 -22.4216 -25.5064 -5.08932 
-12.0044 -6.66542 -2.92968 -10.1595 -6.60913 -3.04372 -8.62244 -6.40787 -3.03466 
-7.29345 -5.94225 -2.81129 -6.10044 -5.29759 -2.37896 -5.01612 -4.55937 -1.93799 
-4.003 -3.85686 -1.56223 -3.08675 -3.24688 -1.13656 -2.3585 -2.64467 -0.670515 
-15.8906 -8.71031 0.149295 -17.4045 -9.9201 -0.363204 -18.8238 -11.6043 -1.09617 
-20.1125 -13.7938 -1.85414 -21.1553 -16.2994 -2.45286 -21.8682 -18.8079 -2.92621 
-22.2559 -21.2187 -3.42428 -22.3597 -23.479 -3.98659 -22.3217 -25.3451 -4.52447 
-12.559 -7.48328 0.43376 -10.6478 -7.33813 0.394005 -8.80222 -7.27131 0.394978 
-7.14216 -7.0373 0.449811 -5.70912 -6.56749 0.472387 -4.5238 -5.86641 0.371361 
-3.55401 -4.9589 0.174212 -2.77413 -3.96382 -0.0153104 -2.21516 -2.97666 -0.150425 
-21.288 -3.0333 -0.237416 -21.4717 -2.8959 0.145309 -21.6065 -2.74829 0.561651 
-21.7273 -2.55388 0.977364 -21.8426 -2.39167 1.50828 -21.849 -2.36328 2.13649 
-21.6784 -2.4899 2.61639 -21.4435 -2.78814 2.86619 -21.2798 -3.24235 3.01316 
-22.277 -4.18282 -0.736878 -23.4739 -5.40405 -1.00597 -24.6509 -6.78862 -1.35983 
-25.874 -8.17729 -1.81018 -26.9756 -9.79213 -2.30105 -27.7006 -12.0725 -2.79162 
-28.1366 -14.7459 -3.24468 -28.445 -17.0333 -3.53399 -28.5871 -18.6742 -3.58273 
-20.0229 -2.1864 -0.167372 -18.9713 -1.09916 0.193902 -17.9155 0.0736028 0.533637 
-16.8094 1.25784 0.829257 -15.6596 2.29408 1.14307 -14.4853 3.11099 1.48689 
-13.337 3.79255 1.75931 -12.2906 4.39767 1.95197 -11.3122 4.87694 2.14863 
-22.2479 -4.82554 2.57745 -23.4755 -6.1873 1.98296 -24.7545 -7.70759 1.33396 
-25.9274 -9.27297 0.631425 -26.9079 -11.0614 -0.0741783 -27.6771 -13.2592 -0.818888 
-28.2082 -15.5525 -1.65156 -28.4913 -17.4518 -2.43398 -28.5789 -18.8477 -3.02739 
-20.2369 -2.50008 3.56925 -19.2525 -1.2681 3.89075 -18.2287 -0.0552073 4.05867 
-17.0501 1.11627 4.10938 -15.6916 2.2006 4.05515 -14.3628 3.15425 3.87452 
-13.1957 3.92391 3.59149 -12.1351 4.49075 3.23808 -11.1671 4.89663 2.82035 
-22.581 -27.6463 -5.08163 -23.2995 -28.2773 -5.09624 -24.4811 -28.3918 -5.00969 
-25.6229 -27.8822 -4.8713 -26.3604 -26.8393 -4.74682 -26.9622 -25.6133 -4.60299 
-27.6159 -24.3522 -4.3516 -28.1091 -22.9037 -4.012 -28.3804 -21.3422 -3.70266 
-1.66806 -0.96566 -0.0712482 -1.72095 0.174008 0.153018 -2.13273 1.32191 0.46567 
-2.82111 2.43379 0.808351 -3.66844 3.41242 1.03374 -4.77838 4.17152 1.19119 
-6.2103 4.76628 1.47142 -7.73197 5.18503 1.84557 -9.11798 5.314 2.15555 
-11.6268 -0.84178 -2.47858 -11.496 -1.37002 -2.72478 -12.8896 -1.64081 -2.53045 
-11.4449 -2.14913 -2.92649 -12.8786 -2.23678 -2.75461 -14.415 -2.62974 -2.53002 
-11.6285 -3.14806 -3.08811 -13.0548 -3.13845 -2.87997 -14.7799 -3.43788 -2.65613 
-16.502 -4.05573 -2.51628 -12.0303 -4.02816 -3.15023 -13.5303 -4.14519 -2.91756 
-15.4537 -4.55265 -2.64022 -17.3819 -5.25893 -2.58698 -18.943 -6.05125 -2.70491 
-12.6152 -4.7627 -3.0476 -14.2761 -5.02032 -2.86935 -16.3352 -5.68696 -2.63042 
-18.3712 -6.63744 -2.64829 -19.8989 -7.57344 -2.9256 -21.0221 -8.30387 -3.21985 
-13.4739 -5.58552 -2.88861 -15.2623 -5.96487 -2.77228 -17.2978 -6.82537 -2.71971 
-19.2053 -7.95251 -2.8938 -20.6033 -9.02673 -3.27392 -21.5968 -9.82255 -3.63891 
-22.4369 -10.3733 -3.89848 -14.5495 -6.47355 -2.79745 -16.3596 -7.05854 -2.74628 
-18.2323 -8.08772 -2.89376 -19.833 -9.27391 -3.2758 -20.9837 -10.3524 -3.74412 
-21.8774 -11.1789 -4.11005 -22.6917 -11.7564 -4.35115 -23.3914 -12.1799 -4.52387 
-9.23089 0.118426 -2.47188 -7.91731 0.220152 -2.48783 -8.90525 -0.502585 -2.7344 
-6.65152 0.140985 -2.41905 -7.55926 -0.550225 -2.76301 -8.75234 -1.3421 -2.93404 
-5.45081 -0.0355604 -2.26988 -6.38998 -0.762742 -2.66053 -7.44283 -1.49202 -2.95821 
-8.88736 -2.35958 -3.06809 -4.3496 -0.328678 -2.08348 -5.36298 -1.11117 -2.42162 
-6.35507 -1.8307 -2.83785 -7.57579 -2.57618 -3.07997 -9.18472 -3.40901 -3.1391 
-3.49415 -0.816253 -1.85675 -4.45463 -1.59957 -2.16455 -5.51348 -2.36331 -2.57261 
-6.54376 -3.05718 -3.01285 -7.8963 -3.79048 -3.18108 -9.54812 -4.44948 -3.16259 
-2.92612 -1.43351 -1.51639 -3.77357 -2.15638 -1.89892 -4.84661 -2.92109 -2.25079 
-5.90978 -3.66011 -2.75033 -7.02209 -4.372 -3.16717 -8.44155 -5.0226 -3.25083 
-10.1108 -5.42157 -3.15978 -2.55758 -2.06343 -1.08521 -3.34172 -2.70875 -1.54355 
-4.33729 -3.39621 -1.90867 -5.43632 -4.14823 -2.32552 -6.54184 -4.89068 -2.84929 
-7.76336 -5.55907 -3.18339 -9.21901 -6.00852 -3.21664 -10.959 -6.17323 -3.09799 
-2.79397 -3.64033 -0.599049 -3.46955 -4.6873 -0.512754 -3.66172 -4.27406 -1.10643 
-4.33381 -5.73333 -0.366527 -4.41552 -5.40411 -1.09901 -4.64129 -4.96524 -1.5882 
-5.36622 -6.60451 -0.157909 -5.29287 -6.48628 -0.998146 -5.37621 -6.18244 -1.65789 
-5.65415 -5.73283 -2.01587 -6.64584 -7.19719 -0.00190658 -6.36676 -7.29024 -0.732304 
[...]
POINT_DATA 1002
FIELD FieldData 4
_paraPhi 1 1002 double
6.2831853072 3.1415926536 6.2831853072 3.1415926536 4.7123889804 4.7123889804 1.5707963268 1.5707963268 3.6951670125 
5.7296109483 2.5880182947 0.5535743589 6.2831853072 6.2831853072 6.2831853072 6.2831853072 3.1415926536 3.1415926536 
3.1415926536 3.1415926536 3.1415926536 6.1053039672 5.898798347 5.6768734901 5.4599499503 5.2659633393 5.1032165617 
4.9713148346 4.8656852733 4.7809517865 0.17788134 0.38438696014 0.60631181711 0.82323535693 1.0172219679 1.1799687454 
1.3118704726 1.4175000338 1.5022335207 6.1892828907 6.1070320098 6.035312792 5.9728339911 5.9183214791 5.8706119594 
5.8286879411 5.7916808611 5.7588591896 0.093902416448 0.17615329733 0.2478725152 0.31035131605 0.36486382811 0.41257334776 
0.45449736604 0.4915044461 0.52432611754 3.3194739936 3.5259796137 3.7479044707 3.9648280105 4.1588146215 4.321561399 
4.4534631262 4.5590926874 4.6438261743 2.9637113136 2.7572056934 2.5352808365 2.3183572967 2.1243706857 1.9616239082 
1.829722181 1.7240926197 1.6393591329 3.23549507 3.3177459509 3.3894651688 3.4519439696 3.5064564817 3.5541660013 
3.5960900196 3.6330970997 3.6659187711 3.0476902371 2.9654393563 2.8937201384 2.8312413375 2.7767288255 2.7290193058 
2.6870952876 2.6500882075 2.617266536 6.2831853072 6.2831853072 6.2831853072 6.2831853072 3.1415926536 3.1415926536 
3.1415926536 3.1415926536 3.1415926536 6.1053039672 5.898798347 5.6768734901 5.4599499503 5.2659633393 5.1032165617 
4.9713148346 4.8656852733 4.7809517865 0.17788134 0.38438696014 0.60631181711 0.82323535693 1.0172219679 1.1799687454 
1.3118704726 1.4175000338 1.5022335207 6.1892828907 6.1070320098 6.035312792 5.9728339911 5.9183214791 5.8706119594 
5.8286879411 5.7916808611 5.7588591896 0.093902416448 0.17615329733 0.2478725152 0.31035131605 0.36486382811 0.41257334776 
0.45449736604 0.4915044461 0.52432611754 3.3194739936 3.5259796137 3.7479044707 3.9648280105 4.1588146215 4.321561399 
4.4534631262 4.5590926874 4.6438261743 2.9637113136 2.7572056934 2.5352808365 2.3183572967 2.1243706857 1.9616239082 
1.829722181 1.7240926197 1.6393591329 3.23549507 3.3177459509 3.3894651688 3.4519439696 3.5064564817 3.5541660013 
3.5960900196 3.6330970997 3.6659187711 3.0476902371 2.9654393563 2.8937201384 2.8312413375 2.7767288255 2.7290193058 
2.6870952876 2.6500882075 2.617266536 4.7123889804 4.7123889804 4.7123889804 4.7123889804 4.7123889804 4.7123889804 
4.7123889804 4.7123889804 4.7123889804 4.6087898617 4.4991390697 4.3857031936 4.2712800401 4.1588146215 4.0509635631 
3.94975894 3.8564636551 3.7716124825 4.8159880991 4.9256388911 5.0390747672 5.1534979207 5.2659633393 5.3738143976 
5.4750190208 5.5683143056 5.6531654782 4.6087898617 4.4991390697 4.3857031936 4.2712800401 4.1588146215 4.0509635631 
3.94975894 3.8564636551 3.7716124825 4.8159880991 4.9256388911 5.0390747672 5.1534979207 5.2659633393 5.3738143976 
5.4750190208 5.5683143056 5.6531654782 1.5707963268 1.5707963268 1.5707963268 1.5707963268 1.5707963268 1.5707963268 
1.5707963268 1.5707963268 1.5707963268 1.6743954455 1.7840462375 1.8974821136 2.0119052671 2.1243706857 2.232221744 
2.3334263672 2.426721652 2.5115728246 1.4671972081 1.3575464161 1.24411054 1.1296873865 1.0172219679 0.90937090954 
0.80816628637 0.71487100155 0.63001982895 1.6743954455 1.7840462375 1.8974821136 2.0119052671 2.1243706857 2.232221744 
2.3334263672 2.426721652 2.5115728246 1.4671972081 1.3575464161 1.24411054 1.1296873865 1.0172219679 0.90937090954 
0.80816628637 0.71487100155 0.63001982895 3.6007720849 3.4966939854 3.3839471039 3.2645756454 3.1415926536 3.0186096618 
2.8992382033 2.7864913217 2.6824132222 5.8240058758 5.9280839753 6.0408308569 6.1602023154 6.2831853072 0.12298299178 
0.2423544503 0.35510133185 0.45917943135 6.0560271438 5.7885595667 5.9702140275 5.5125918794 5.6029703303 5.7885595667 
5.2659633393 5.2659633393 5.2659633393 5.2659633393 5.0674903122 5.0120975802 4.9155579264 4.7123889804 4.1588146215 
4.9155579264 4.8353719722 4.7123889804 4.5092200343 4.1588146215 3.6362183941 4.8004512023 4.7123889804 4.5894059886 
4.4126803806 4.1588146215 3.8218076305 3.4545639333 4.7123889804 4.6243267584 4.5092200343 4.3572876485 4.1588146215 
3.9121860814 3.6362183941 3.368750817 6.0174235957 5.9434319871 5.8263323547 5.8809213739 5.7674481418 5.6279784266 
5.8278025282 5.718968232 5.5891129425 5.4372443565 5.7823484065 5.678536687 5.5575666702 5.4192596322 5.2659633393 
5.743164462 5.6444075337 5.5314983644 5.4046708639 5.2659633393 5.1195510325 5.7091357773 5.6152775188 5.5096229709 
5.3926039573 5.2659633393 5.1329233157 4.9978930058 5.6793730533 5.5901633916 5.4910209005 5.3824597928 5.2659633393 
5.1440684722 5.0201624502 4.8979782167 5.5683143056 5.4750190208 5.4750190208 5.3738143976 5.3738143976 5.3738143976 
5.2659633393 5.2659633393 5.2659633393 5.2659633393 5.1534979207 5.1534979207 5.1534979207 5.1534979207 5.1534979207 
5.0390747672 5.0390747672 5.0390747672 5.0390747672 5.0390747672 5.0390747672 4.9256388911 4.9256388911 4.9256388911 
4.9256388911 4.9256388911 4.9256388911 4.9256388911 4.8159880991 4.8159880991 4.8159880991 4.8159880991 4.8159880991 
4.8159880991 4.8159880991 4.8159880991 4.6087898617 4.6087898617 4.4991390697 4.6087898617 4.4991390697 4.3857031936 
4.6087898617 4.4991390697 4.3857031936 4.2712800401 4.6087898617 4.4991390697 4.3857031936 4.2712800401 4.1588146215 
4.6087898617 4.4991390697 4.3857031936 4.2712800401 4.1588146215 4.0509635631 4.6087898617 4.4991390697 4.3857031936 
4.2712800401 4.1588146215 4.0509635631 3.94975894 4.6087898617 4.4991390697 4.3857031936 4.2712800401 4.1588146215 
4.0509635631 3.94975894 3.8564636551 4.526799744 4.4046155105 4.426884955 4.2807094886 4.2918546451 4.3052269283 
4.1588146215 4.1588146215 4.1588146215 4.1588146215 4.042318168 4.0321740035 4.0201070968 4.0055183285 3.9875336042 
3.9337570603 3.9151549899 3.8932795963 3.8672112905 3.8356650183 3.7967995342 3.8346145692 3.809500442 3.7803704271 
3.7462412737 3.7058097288 3.657329819 3.5984456061 3.7454049075 3.7156421835 3.6816134988 3.6424295543 3.5969754326 
3.5438565869 3.4813459737 3.4073543651 3.5642842451 3.4524645613 3.5233842518 3.3320300872 3.403123212 3.4773852225 
3.20576226 3.2746326772 3.348015857 3.4255060145 3.0774230472 3.1415926536 3.2112816139 3.2864685043 3.3668817272 
2.95115522 3.00855263 3.0719036933 3.1415926536 3.2178377658 3.3005964304 2.8307207459 2.8800620952 2.9351694502 
2.9967168029 3.0653475414 3.1415926536 3.225752376 2.718901062 2.7598010554 2.8058000847 2.8576792927 2.91630358 
2.9825888767 3.0574329311 3.1415926536 3.5642842451 3.5233842518 3.4524645613 3.4773852225 3.403123212 3.3320300872 
3.4255060145 3.348015857 3.2746326772 3.20576226 3.3668817272 3.2864685043 3.2112816139 3.1415926536 3.0774230472 
3.3005964304 3.2178377658 3.1415926536 3.0719036933 3.00855263 2.95115522 3.225752376 3.1415926536 3.0653475414 
2.9967168029 2.9351694502 2.8800620952 2.8307207459 3.1415926536 3.0574329311 2.9825888767 2.91630358 2.8576792927 
2.8058000847 2.7598010554 2.718901062 4.526799744 4.426884955 4.4046155105 4.3052269283 4.2918546451 4.2807094886 
4.1588146215 4.1588146215 4.1588146215 4.1588146215 3.9875336042 4.0055183285 4.0201070968 4.0321740035 4.042318168 
3.7967995342 3.8356650183 3.8672112905 3.8932795963 3.9151549899 3.9337570603 3.5984456061 3.657329819 3.7058097288 
3.7462412737 3.7803704271 3.809500442 3.8346145692 3.4073543651 3.4813459737 3.5438565869 3.5969754326 3.6424295543 
3.6816134988 3.7156421835 3.7454049075 4.7123889804 4.8004512023 4.6243267584 4.9155579264 4.7123889804 4.5092200343 
5.0674903122 4.8353719722 4.5894059886 4.3572876485 5.2659633393 5.0120975802 4.7123889804 4.4126803806 4.1588146215 
5.5125918794 5.2659633393 4.9155579264 4.5092200343 4.1588146215 3.9121860814 5.7885595667 5.6029703303 5.2659633393 
4.7123889804 4.1588146215 3.8218076305 3.6362183941 6.0560271438 5.9702140275 5.7885595667 5.2659633393 4.1588146215 
3.6362183941 3.4545639333 3.368750817 0.22715816343 0.49462574053 0.3129712797 0.77059342779 0.68021497688 0.49462574053 
1.0172219679 1.0172219679 1.0172219679 1.0172219679 1.2156949949 1.271087727 1.3676273807 1.5707963268 2.1243706857 
1.3676273807 1.447813335 1.5707963268 1.7739652728 2.1243706857 2.6469669131 1.4827341049 1.5707963268 1.6937793186 
1.8705049266 2.1243706857 2.4613776767 2.8286213739 1.5707963268 1.6588585487 1.7739652728 1.9258976586 2.1243706857 
2.3709992258 2.6469669131 2.9144344902 1.7563855631 1.8785697967 1.8563003522 2.0024758186 1.9913306621 1.9779583789 
2.1243706857 2.1243706857 2.1243706857 2.1243706857 2.2408671392 2.2510113037 2.2630782103 2.2776669786 2.295651703 
2.3494282469 2.3680303173 2.3899057108 2.4159740166 2.4475202889 2.486385773 2.448570738 2.4736848652 2.5028148801 
2.5369440334 2.5773755784 2.6258554882 2.6847397011 2.5377803997 2.5675431237 2.6015718084 2.6407557529 2.6862098746 
2.7393287203 2.8018393335 2.8758309421 1.6743954455 1.6743954455 1.7840462375 1.6743954455 1.7840462375 1.8974821136 
1.6743954455 1.7840462375 1.8974821136 2.0119052671 1.6743954455 1.7840462375 1.8974821136 2.0119052671 2.1243706857 
1.6743954455 1.7840462375 1.8974821136 2.0119052671 2.1243706857 2.232221744 1.6743954455 1.7840462375 1.8974821136 
2.0119052671 2.1243706857 2.232221744 2.3334263672 1.6743954455 1.7840462375 1.8974821136 2.0119052671 2.1243706857 
2.232221744 2.3334263672 2.426721652 1.4671972081 1.3575464161 1.4671972081 1.24411054 1.3575464161 1.4671972081 
1.1296873865 1.24411054 1.3575464161 1.4671972081 1.0172219679 1.1296873865 1.24411054 1.3575464161 1.4671972081 
0.90937090954 1.0172219679 1.1296873865 1.24411054 1.3575464161 1.4671972081 0.80816628637 0.90937090954 1.0172219679 
1.1296873865 1.24411054 1.3575464161 1.4671972081 0.71487100155 0.80816628637 0.90937090954 1.0172219679 1.1296873865 
1.24411054 1.3575464161 1.4671972081 0.60381225391 0.57404952988 0.69302191562 0.54002084522 0.66790778838 0.79216440667 
0.50083690068 0.63877777351 0.77356233629 0.90072551443 0.45538277901 0.60464862014 0.75168694275 0.89058134991 1.0172219679 
0.40226393329 0.56421707518 0.72561863695 0.87851444325 1.0172219679 1.139116835 0.33975332011 0.51573716537 0.69407236469 
0.86392567495 1.0172219679 1.1502619915 1.2630228569 0.26576171152 0.45685295248 0.6552068806 0.84594095064 1.0172219679 
1.1636342747 1.2852923014 1.3852070904 0.22715816343 0.3129712797 0.49462574053 0.49462574053 0.68021497688 0.77059342779 
1.0172219679 1.0172219679 1.0172219679 1.0172219679 2.1243706857 1.5707963268 1.3676273807 1.271087727 1.2156949949 
2.6469669131 2.1243706857 1.7739652728 1.5707963268 1.447813335 1.3676273807 2.8286213739 2.4613776767 2.1243706857 
1.8705049266 1.6937793186 1.5707963268 1.4827341049 2.9144344902 2.6469669131 2.3709992258 2.1243706857 1.9258976586 
1.7739652728 1.6588585487 1.5707963268 1.7563855631 1.8563003522 1.8785697967 1.9779583789 1.9913306621 2.0024758186 
2.1243706857 2.1243706857 2.1243706857 2.1243706857 2.295651703 2.2776669786 2.2630782103 2.2510113037 2.2408671392 
2.486385773 2.4475202889 2.4159740166 2.3899057108 2.3680303173 2.3494282469 2.6847397011 2.6258554882 2.5773755784 
2.5369440334 2.5028148801 2.4736848652 2.448570738 2.8758309421 2.8018393335 2.7393287203 2.6862098746 2.6407557529 
2.6015718084 2.5675431237 2.5377803997 5.8604937156 5.901393709 5.9723133995 5.9473927383 6.0216547488 6.0927478736 
5.9992719463 6.0767621038 6.1501452836 6.2190157008 6.0578962336 6.1383094565 6.2134963469 0 0.064169606361 
6.1241815303 6.206940195 6.2831853072 0.069688960264 0.13304002361 0.19043743361 6.1990255847 0 0.07624511221 
0.14487585072 0.20642320337 0.26153055843 0.3108719077 0 0.084159722458 0.15900377685 0.22528907359 0.28391336087 
0.3357925689 0.38179159818 0.42269159155 5.8604937156 5.9723133995 5.901393709 6.0927478736 6.0216547488 5.9473927383 
6.2190157008 6.1501452836 6.0767621038 5.9992719463 0.064169606361 0 6.2134963469 6.1383094565 6.0578962336 
0.19043743361 0.13304002361 0.069688960264 6.2831853072 6.206940195 6.1241815303 0.3108719077 0.26153055843 0.20642320337 
0.14487585072 0.07624511221 6.2831853072 6.1990255847 0.42269159155 0.38179159818 0.3357925689 0.28391336087 0.22528907359 
0.15900377685 0.084159722458 0 5.6793730533 5.7091357773 5.5901633916 5.743164462 5.6152775188 5.4910209005 
5.7823484065 5.6444075337 5.5096229709 5.3824597928 5.8278025282 5.678536687 5.5314983644 5.3926039573 5.2659633393 
5.8809213739 5.718968232 5.5575666702 5.4046708639 5.2659633393 5.1440684722 5.9434319871 5.7674481418 5.5891129425 
5.4192596322 5.2659633393 5.1329233157 5.0201624502 6.0174235957 5.8263323547 5.6279784266 5.4372443565 5.2659633393 
5.1195510325 4.9978930058 4.8979782167 1.3852070904 1.2852923014 1.2630228569 1.1636342747 1.1502619915 1.139116835 
1.0172219679 1.0172219679 1.0172219679 1.0172219679 0.84594095064 0.86392567495 0.87851444325 0.89058134991 0.90072551443 
0.6552068806 0.69407236469 0.72561863695 0.75168694275 0.77356233629 0.79216440667 0.45685295248 0.51573716537 0.56421707518 
0.60464862014 0.63877777351 0.66790778838 0.69302191562 0.26576171152 0.33975332011 0.40226393329 0.45538277901 0.50083690068 
0.54002084522 0.57404952988 0.60381225391 
_paraPhiHalf 1 1002 double
0 3.1415926536 0 3.1415926536 1.5707963268 1.5707963268 1.5707963268 1.5707963268 2.5880182947 
0.5535743589 2.5880182947 0.5535743589 0 0 0 0 3.1415926536 3.1415926536 
3.1415926536 3.1415926536 3.1415926536 0.17788134 0.38438696014 0.60631181711 0.82323535693 1.0172219679 1.1799687454 
1.3118704726 1.4175000338 1.5022335207 0.17788134 0.38438696014 0.60631181711 0.82323535693 1.0172219679 1.1799687454 
1.3118704726 1.4175000338 1.5022335207 0.093902416448 0.17615329733 0.2478725152 0.31035131605 0.36486382811 0.41257334776 
0.45449736604 0.4915044461 0.52432611754 0.093902416448 0.17615329733 0.2478725152 0.31035131605 0.36486382811 0.41257334776 
0.45449736604 0.4915044461 0.52432611754 2.9637113136 2.7572056934 2.5352808365 2.3183572967 2.1243706857 1.9616239082 
1.829722181 1.7240926197 1.6393591329 2.9637113136 2.7572056934 2.5352808365 2.3183572967 2.1243706857 1.9616239082 
1.829722181 1.7240926197 1.6393591329 3.0476902371 2.9654393563 2.8937201384 2.8312413375 2.7767288255 2.7290193058 
2.6870952876 2.6500882075 2.617266536 3.0476902371 2.9654393563 2.8937201384 2.8312413375 2.7767288255 2.7290193058 
2.6870952876 2.6500882075 2.617266536 0 0 0 0 3.1415926536 3.1415926536 
3.1415926536 3.1415926536 3.1415926536 0.17788134 0.38438696014 0.60631181711 0.82323535693 1.0172219679 1.1799687454 
1.3118704726 1.4175000338 1.5022335207 0.17788134 0.38438696014 0.60631181711 0.82323535693 1.0172219679 1.1799687454 
1.3118704726 1.4175000338 1.5022335207 0.093902416448 0.17615329733 0.2478725152 0.31035131605 0.36486382811 0.41257334776 
0.45449736604 0.4915044461 0.52432611754 0.093902416448 0.17615329733 0.2478725152 0.31035131605 0.36486382811 0.41257334776 
0.45449736604 0.4915044461 0.52432611754 2.9637113136 2.7572056934 2.5352808365 2.3183572967 2.1243706857 1.9616239082 
1.829722181 1.7240926197 1.6393591329 2.9637113136 2.7572056934 2.5352808365 2.3183572967 2.1243706857 1.9616239082 
1.829722181 1.7240926197 1.6393591329 3.0476902371 2.9654393563 2.8937201384 2.8312413375 2.7767288255 2.7290193058 
2.6870952876 2.6500882075 2.617266536 3.0476902371 2.9654393563 2.8937201384 2.8312413375 2.7767288255 2.7290193058 
2.6870952876 2.6500882075 2.617266536 1.5707963268 1.5707963268 1.5707963268 1.5707963268 1.5707963268 1.5707963268 
1.5707963268 1.5707963268 1.5707963268 1.6743954455 1.7840462375 1.8974821136 2.0119052671 2.1243706857 2.232221744 
2.3334263672 2.426721652 2.5115728246 1.4671972081 1.3575464161 1.24411054 1.1296873865 1.0172219679 0.90937090954 
0.80816628637 0.71487100155 0.63001982895 1.6743954455 1.7840462375 1.8974821136 2.0119052671 2.1243706857 2.232221744 
2.3334263672 2.426721652 2.5115728246 1.4671972081 1.3575464161 1.24411054 1.1296873865 1.0172219679 0.90937090954 
0.80816628637 0.71487100155 0.63001982895 1.5707963268 1.5707963268 1.5707963268 1.5707963268 1.5707963268 1.5707963268 
1.5707963268 1.5707963268 1.5707963268 1.6743954455 1.7840462375 1.8974821136 2.0119052671 2.1243706857 2.232221744 
2.3334263672 2.426721652 2.5115728246 1.4671972081 1.3575464161 1.24411054 1.1296873865 1.0172219679 0.90937090954 
0.80816628637 0.71487100155 0.63001982895 1.6743954455 1.7840462375 1.8974821136 2.0119052671 2.1243706857 2.232221744 
2.3334263672 2.426721652 2.5115728246 1.4671972081 1.3575464161 1.24411054 1.1296873865 1.0172219679 0.90937090954 
0.80816628637 0.71487100155 0.63001982895 2.6824132222 2.7864913217 2.8992382033 3.0186096618 3.1415926536 3.0186096618 
2.8992382033 2.7864913217 2.6824132222 0.45917943135 0.35510133185 0.2423544503 0.12298299178 0 0.12298299178 
0.2423544503 0.35510133185 0.45917943135 0.22715816343 0.49462574053 0.3129712797 0.77059342779 0.68021497688 0.49462574053 
1.0172219679 1.0172219679 1.0172219679 1.0172219679 1.2156949949 1.271087727 1.3676273807 1.5707963268 2.1243706857 
1.3676273807 1.447813335 1.5707963268 1.7739652728 2.1243706857 2.6469669131 1.4827341049 1.5707963268 1.6937793186 
1.8705049266 2.1243706857 2.4613776767 2.8286213739 1.5707963268 1.6588585487 1.7739652728 1.9258976586 2.1243706857 
2.3709992258 2.6469669131 2.9144344902 0.26576171152 0.33975332011 0.45685295248 0.40226393329 0.51573716537 0.6552068806 
0.45538277901 0.56421707518 0.69407236469 0.84594095064 0.50083690068 0.60464862014 0.72561863695 0.86392567495 1.0172219679 
0.54002084522 0.63877777351 0.75168694275 0.87851444325 1.0172219679 1.1636342747 0.57404952988 0.66790778838 0.77356233629 
0.89058134991 1.0172219679 1.1502619915 1.2852923014 0.60381225391 0.69302191562 0.79216440667 0.90072551443 1.0172219679 
1.139116835 1.2630228569 1.3852070904 0.71487100155 0.80816628637 0.80816628637 0.90937090954 0.90937090954 0.90937090954 
1.0172219679 1.0172219679 1.0172219679 1.0172219679 1.1296873865 1.1296873865 1.1296873865 1.1296873865 1.1296873865 
1.24411054 1.24411054 1.24411054 1.24411054 1.24411054 1.24411054 1.3575464161 1.3575464161 1.3575464161 
1.3575464161 1.3575464161 1.3575464161 1.3575464161 1.4671972081 1.4671972081 1.4671972081 1.4671972081 1.4671972081 
1.4671972081 1.4671972081 1.4671972081 1.6743954455 1.6743954455 1.7840462375 1.6743954455 1.7840462375 1.8974821136 
1.6743954455 1.7840462375 1.8974821136 2.0119052671 1.6743954455 1.7840462375 1.8974821136 2.0119052671 2.1243706857 
1.6743954455 1.7840462375 1.8974821136 2.0119052671 2.1243706857 2.232221744 1.6743954455 1.7840462375 1.8974821136 
2.0119052671 2.1243706857 2.232221744 2.3334263672 1.6743954455 1.7840462375 1.8974821136 2.0119052671 2.1243706857 
2.232221744 2.3334263672 2.426721652 1.7563855631 1.8785697967 1.8563003522 2.0024758186 1.9913306621 1.9779583789 
2.1243706857 2.1243706857 2.1243706857 2.1243706857 2.2408671392 2.2510113037 2.2630782103 2.2776669786 2.295651703 
2.3494282469 2.3680303173 2.3899057108 2.4159740166 2.4475202889 2.486385773 2.448570738 2.4736848652 2.5028148801 
2.5369440334 2.5773755784 2.6258554882 2.6847397011 2.5377803997 2.5675431237 2.6015718084 2.6407557529 2.6862098746 
2.7393287203 2.8018393335 2.8758309421 2.718901062 2.8307207459 2.7598010554 2.95115522 2.8800620952 2.8058000847 
3.0774230472 3.00855263 2.9351694502 2.8576792927 3.0774230472 3.1415926536 3.0719036933 2.9967168029 2.91630358 
2.95115522 3.00855263 3.0719036933 3.1415926536 3.0653475414 2.9825888767 2.8307207459 2.8800620952 2.9351694502 
2.9967168029 3.0653475414 3.1415926536 3.0574329311 2.718901062 2.7598010554 2.8058000847 2.8576792927 2.91630358 
2.9825888767 3.0574329311 3.1415926536 2.718901062 2.7598010554 2.8307207459 2.8058000847 2.8800620952 2.95115522 
2.8576792927 2.9351694502 3.00855263 3.0774230472 2.91630358 2.9967168029 3.0719036933 3.1415926536 3.0774230472 
2.9825888767 3.0653475414 3.1415926536 3.0719036933 3.00855263 2.95115522 3.0574329311 3.1415926536 3.0653475414 