# vtk DataFile Version 5.1
vtk output
ASCII
DATASET POLYDATA
POINTS 1002 float
-10.7577 0.247941 -2.22519 -24.7071 -14.2572 -4.69207 -9.70276 -2.67971 3.79751 
-23.8405 -15.2657 -0.179172 -13.9716 -6.57695 -2.85016 -14.2644 -7.75529 0.136491 
-21.177 -2.88003 -0.739363 -21.5325 -3.72232 2.99291 -22.4689 -26.3516 -5.37532 
-1.6977 -2.05572 -0.040796 -28.5755 -20.0161 -3.22368 -10.2189 4.96097 2.55922 
-11.7538 -0.375079 -2.33709 -12.956 -1.07987 -2.43651 -14.3444 -1.917 -2.4674 
-15.9353 -2.98439 -2.52305 -17.8258 -4.40029 -2.75428 -19.9019 -6.22659 -3.13552 
-21.7324 -8.30686 -3.5933 -23.058 -10.3753 -4.07366 -23.9948 -12.3488 -4.45459 
-10.562 -0.259992 -2.4458 -10.4365 -0.873007 -2.66759 -10.3881 -1.56975 -2.96308 
-10.4605 -2.30335 -3.27417 -10.7748 -3.11934 -3.44403 -11.3183 -4.11896 -3.4903 
-11.8869 -5.12047 -3.4948 -12.4287 -5.80216 -3.38011 -13.0994 -6.19554 -3.11938 
-11.5852 0.314208 -2.02546 -12.5247 0.31295 -1.81695 -13.5929 0.214866 -1.61301 
-14.7636 -0.0045459 -1.37103 -15.9755 -0.346502 -1.13612 -17.1792 -0.796659 -0.992772 
-18.32 -1.32219 -0.879685 -19.3593 -1.87318 -0.762632 -20.3092 -2.40179 -0.71631 
-9.66813 0.545707 -2.28234 -8.45659 0.805699 -2.31193 -7.15683 0.939412 -2.22958 
-5.85151 0.845034 -2.04689 -4.59852 0.545589 -1.86357 -3.48778 0.169571 -1.64558 
-2.62866 -0.256953 -1.28704 -2.03761 -0.800215 -0.842539 -1.71784 -1.4364 -0.421687 
-10.3725 0.903856 -1.98391 -10.0493 1.56507 -1.66817 -9.75371 2.24866 -1.31209 
-9.50293 2.95235 -0.912302 -9.37213 3.58718 -0.399974 -9.37531 4.11431 0.157662 
-9.4932 4.56246 0.662306 -9.71582 4.88506 1.21593 -9.98207 5.01203 1.88749 
-24.2189 -14.0355 -4.73693 -23.622 -13.643 -4.6901 -22.9552 -13.0774 -4.53097 
-22.1566 -12.2811 -4.34857 -21.0804 -11.1454 -4.1549 -19.7641 -9.72821 -3.81176 
-18.3989 -8.35827 -3.36196 -17.0032 -7.35462 -3.02574 -15.5004 -6.79042 -2.87677 
-24.7103 -13.1909 -4.47677 -24.6378 -12.0023 -4.22056 -24.4817 -10.6672 -3.91605 
-24.1862 -9.24443 -3.51956 -23.717 -7.85935 -3.05157 -23.1701 -6.57721 -2.57749 
-22.6433 -5.41629 -2.10414 -22.1308 -4.41317 -1.62639 -21.6318 -3.57933 -1.16698 
-25.0263 -16.1953 -4.93445 -25.1861 -18.2961 -5.2834 -25.0843 -20.2586 -5.79696 
-24.7692 -22.0149 -6.29728 -24.3674 -23.6613 -6.60524 -23.8942 -25.0559 -6.8111 
-23.3585 -26.0304 -6.92294 -22.8851 -26.581 -6.7082 -22.5865 -26.6805 -6.11641 
-25.3284 -15.51 -4.7701 -25.8737 -16.7429 -4.86272 -26.3578 -17.9005 -4.94943 
-26.824 -18.9254 -4.97067 -27.2493 -19.736 -4.91394 -27.6072 -20.2704 -4.78567 
-27.9538 -20.5255 -4.5271 -28.288 -20.5328 -4.13169 -28.5067 -20.3415 -3.68303 
-10.7561 -3.26833 3.75562 -12.0044 -3.90512 3.63567 -13.5079 -4.57584 3.39162 
-15.2999 -5.30462 2.95799 -17.2508 -6.29303 2.39127 -19.1397 -7.72641 1.80709 
-20.8098 -9.49202 1.18179 -22.1628 -11.3998 0.546084 -23.1581 -13.3634 0.0782242 
-9.75773 -3.21 3.50854 -9.80079 -3.7829 3.20813 -9.87391 -4.44198 2.88846 
-10.0789 -5.13736 2.5228 -10.4938 -5.75745 2.11605 -11.0864 -6.26754 1.67018 
-11.7914 -6.70602 1.21097 -12.5866 -7.08951 0.80792 -13.4338 -7.42615 0.467274 
-10.2922 -2.50687 4.05408 -11.1055 -2.32276 4.19732 -12.2623 -2.1437 4.13987 
-13.6654 -2.06941 3.99701 -15.1618 -2.18689 3.93234 -16.7465 -2.48177 3.88411 
-18.3305 -2.86752 3.75138 -19.6853 -3.22724 3.55931 -20.7266 -3.49759 3.31316 
-8.74238 -2.45243 3.60588 -7.70462 -2.24845 3.36724 -6.64771 -2.07042 3.08331 
-5.62955 -1.94129 2.74329 -4.62379 -1.86301 2.38593 -3.66802 -1.8267 2.04433 
-2.86087 -1.8474 1.63886 -2.22602 -1.91614 1.1068 -1.81129 -1.99292 0.516039 
-9.06728 -1.90799 3.94701 -8.4847 -0.955396 4.03927 -8.05095 0.127992 4.10851 
-7.82421 1.28425 4.17279 -7.81368 2.39971 4.11922 -8.00414 3.3288 3.89041 
-8.40122 4.05952 3.63008 -8.99458 4.60965 3.39053 -9.65658 4.9135 3.04473 
-23.3134 -14.757 -0.185673 -22.7163 -14.0647 -0.214636 -22.0399 -13.2024 -0.250151 
-21.2308 -12.2011 -0.230606 -20.2069 -11.1513 -0.0757555 -18.9995 -10.195 0.178352 
-17.7627 -9.38522 0.347777 -16.5756 -8.68501 0.347732 -15.4112 -8.11797 0.256131 
-23.9601 -14.4836 -0.0446726 -23.9838 -13.5426 0.171626 -23.9199 -12.4263 0.485655 
-23.8002 -11.1263 0.795707 -23.5487 -9.70031 1.0588 -23.1248 -8.29041 1.39329 
-22.6812 -7.02139 1.84198 -22.3146 -5.87916 2.30098 -21.9496 -4.77952 2.69228 
-24.0324 -16.8989 -0.394517 -24.1347 -18.624 -0.734451 -24.1811 -20.3692 -1.20606 
-24.1153 -22.0704 -1.72152 -23.8991 -23.6019 -2.30953 -23.6303 -24.8007 -2.98755 
-23.3323 -25.6296 -3.62703 -22.9608 -26.1696 -4.2143 -22.6262 -26.4295 -4.82035 
-24.4903 -16.6532 -0.297728 -25.1541 -17.9491 -0.454391 -25.8064 -19.0294 -0.701248 
-26.4218 -19.8659 -1.03158 -27.0283 -20.4733 -1.38454 -27.5659 -20.8118 -1.73658 
-27.9299 -20.8635 -2.11699 -28.1855 -20.7119 -2.52284 -28.4186 -20.4307 -2.90595 
-13.6941 -6.85057 -2.70821 -13.5537 -7.21242 -2.57965 -13.4874 -7.5604 -2.46573 
-13.4136 -7.77735 -2.22961 -13.4075 -7.88937 -1.79601 -13.5272 -7.96986 -1.33077 
-13.6931 -7.98864 -0.946302 -13.8649 -7.92074 -0.571114 -14.0598 -7.82573 -0.189682 
-15.9663 -7.39875 -2.77699 -17.9004 -9.10332 -3.09024 -19.3817 -11.6079 -3.57698 
-20.5285 -14.3929 -3.88058 -21.5644 -17.0984 -4.05758 -22.2386 -19.642 -4.36749 
-22.4142 -21.8886 -4.77111 -22.3875 -23.748 -5.11571 -22.3861 -25.2433 -5.33185 
-11.8708 -6.3996 -3.0944 -9.95267 -6.33738 -3.32688 -8.4383 -6.08884 -3.22314 
-7.16192 -5.61759 -2.7749 -5.88597 -5.05736 -2.30282 -4.6735 -4.50957 -1.94576 
-3.62603 -3.98782 -1.55858 -2.7308 -3.41514 -1.06943 -2.05465 -2.74733 -0.54275 
-15.8015 -8.45082 -0.166936 -17.3259 -9.61679 -0.590383 -18.736 -11.3003 -1.08087 
-20.003 -13.5314 -1.51104 -21.0556 -16.2414 -1.92505 -21.7447 -19.0501 -2.50897 
-22.0727 -21.5038 -3.242 -22.2284 -23.4907 -3.96917 -22.3484 -25.1035 -4.66902 
-12.5232 -7.451 0.20698 -10.6489 -7.38441 0.273556 -8.83914 -7.28943 0.332362 
-7.2036 -6.99476 0.383194 -5.7673 -6.53428 0.420707 -4.579 -5.87465 0.3998 
-3.60969 -5.00491 0.30015 -2.76753 -4.04964 0.164381 -2.09319 -3.06192 0.0447638 
-21.4256 -2.74681 -0.476267 -21.671 -2.5817 -0.141796 -21.8716 -2.38636 0.270824 
-22.0081 -2.21569 0.757039 -22.0778 -2.16724 1.30904 -22.0376 -2.26342 1.87202 
-21.9044 -2.45768 2.34846 -21.7782 -2.76945 2.68523 -21.6751 -3.22034 2.89042 
-22.3038 -3.81242 -1.03449 -23.4613 -4.99339 -1.31903 -24.6151 -6.46082 -1.61933 
-25.7939 -8.02412 -1.99637 -26.8956 -9.66794 -2.38613 -27.7054 -11.7965 -2.69006 
-28.2114 -14.4031 -2.92749 -28.5285 -16.8343 -3.10553 -28.6552 -18.6758 -3.19427 
-20.1991 -1.91607 -0.291887 -19.1395 -0.856845 0.158833 -18.0173 0.2596 0.540426 
-16.8709 1.31978 0.838472 -15.6997 2.24858 1.15551 -14.4664 3.04383 1.51103 
-13.2466 3.70223 1.7973 -12.1667 4.23424 2.03229 -11.1941 4.66476 2.30068 
-22.5696 -4.72277 2.41004 -23.7236 -6.0889 1.72131 -24.9542 -7.77585 1.01244 
-26.171 -9.57957 0.36882 -27.2583 -11.4398 -0.155406 -28.061 -13.4645 -0.648467 
-28.5079 -15.5512 -1.27624 -28.673 -17.3883 -2.01398 -28.6672 -18.84 -2.68799 
-20.5828 -2.55465 3.41469 -19.4935 -1.33832 3.70591 -18.2736 -0.0936154 3.88033 
-16.9044 1.08999 4.01995 -15.4699 2.1816 4.12922 -14.1887 3.16011 4.08665 
-13.0961 3.89274 3.83649 -12.0672 4.35098 3.46245 -11.0925 4.68108 3.03221 
-22.7113 -27.4269 -5.74499 -23.2766 -28.0823 -5.92517 -24.3316 -28.1928 -5.77634 
-25.5698 -27.8226 -5.39271 -26.4964 -27.0375 -5.01142 -27.1245 -25.9038 -4.68881 
-27.6593 -24.542 -4.33478 -28.0724 -23.0244 -3.93632 -28.3615 -21.4689 -3.55413 
-1.58114 -0.990683 0.214461 -1.83164 0.0533086 0.452793 -2.44171 1.04139 0.674327 
-3.20013 2.11242 0.935669 -3.91293 3.22157 1.21654 -4.77688 4.11194 1.44871 
-6.05855 4.73389 1.69832 -7.57844 5.10852 2.02472 -9.00272 5.16497 2.34055 
-11.6635 -0.896995 -2.59197 -11.6445 -1.5002 -2.87616 -12.9526 -1.59185 -2.71025 
-11.758 -2.23481 -3.17 -13.0451 -2.24261 -2.95424 -14.4474 -2.49186 -2.70518 
-12.0834 -3.0863 -3.37351 -13.3529 -3.11919 -3.10537 -14.7188 -3.32622 -2.81788 
-16.2845 -3.78101 -2.71935 -12.6119 -4.00821 -3.44411 -13.8776 -4.05824 -3.20604 
-15.2608 -4.34767 -2.87899 -16.8568 -4.8721 -2.79837 -18.511 -5.53604 -2.97783 
-13.2159 -4.92287 -3.4159 -14.5026 -4.89978 -3.28485 -15.9746 -5.27586 -3.06979 
-17.642 -6.01049 -2.98331 -19.2855 -6.8451 -3.1982 -20.6882 -7.62687 -3.47607 
-13.857 -5.65929 -3.27211 -15.2161 -5.6767 -3.24311 -16.737 -6.15284 -3.28214 
-18.4742 -7.11073 -3.34715 -20.0692 -8.1735 -3.53995 -21.3296 -9.06638 -3.84584 
-22.3099 -9.79437 -4.04209 -14.6207 -6.20963 -3.04667 -16.0809 -6.46542 -3.09812 
-17.5579 -7.17593 -3.34414 -19.1867 -8.3531 -3.65521 -20.7116 -9.62095 -3.90087 
-21.8439 -10.6208 -4.14888 -22.6879 -11.3536 -4.38435 -23.4026 -11.9277 -4.48134 
-9.38492 -0.0362271 -2.46993 -8.09859 0.144487 -2.47934 -9.19563 -0.766653 -2.67152 
-6.7453 0.181674 -2.41204 -7.85334 -0.689871 -2.68653 -9.06436 -1.55239 -2.97591 
-5.38775 -0.0317964 -2.25008 -6.46033 -0.759927 -2.6351 -7.65947 -1.57521 -2.96492 
-9.06202 -2.32474 -3.25208 -4.15506 -0.445554 -2.03938 -5.12832 -1.09067 -2.46752 
-6.31354 -1.81022 -2.86628 -7.65162 -2.50243 -3.16006 -9.38133 -3.26206 -3.37666 
-3.2231 -0.940844 -1.75516 -4.0816 -1.61081 -2.21566 -5.21125 -2.3014 -2.65529 
-6.47602 -2.96731 -3.00793 -8.02117 -3.63982 -3.27958 -9.94661 -4.43588 -3.48125 
-2.59668 -1.50793 -1.369 -3.41007 -2.20229 -1.8764 -4.46395 -2.87683 -2.33414 
-5.67067 -3.55217 -2.73428 -7.00341 -4.18512 -3.10773 -8.62147 -4.84776 -3.43939 
-10.5018 -5.45694 -3.55738 -2.1977 -2.14035 -0.948657 -2.97748 -2.82246 -1.47492 
-3.96827 -3.43664 -1.93949 -5.11775 -4.05226 -2.3307 -6.37162 -4.67038 -2.74179 
-7.70824 -5.25608 -3.20608 -9.24394 -5.76214 -3.49913 -11.0771 -6.05031 -3.41804 
-2.56883 -3.78777 -0.49334 -3.32464 -4.80833 -0.418557 -3.33 -4.4459 -1.07203 
-4.21182 -5.81253 -0.311326 -4.10942 -5.49848 -1.06839 -4.27365 -4.99647 -1.5841 
-5.25138 -6.66205 -0.171328 -5.04344 -6.5193 -0.968981 -5.11224 -6.05829 -1.60357 
-5.42914 -5.50147 -1.95863 -6.5787 -7.22279 -0.0657409 -6.22035 -7.29012 -0.744798 
-6.18414 -7.04776 -1.49546 -6.40165 -6.56486 -2.0135 -6.77842 -6.04868 -2.37174 
[...]
POINT_DATA 1002
FIELD FieldData 4
_paraPhi 1 1002 double
6.2831853072 3.1415926536 6.2831853072 3.1415926536 4.7123889804 4.7123889804 1.5707963268 1.5707963268 3.6951670125 
5.7296109483 2.5880182947 0.5535743589 6.2831853072 6.2831853072 6.2831853072 6.2831853072 3.1415926536 3.1415926536 
3.1415926536 3.1415926536 3.1415926536 6.1053039672 5.898798347 5.6768734901 5.4599499503 5.2659633393 5.1032165617 
4.9713148346 4.8656852733 4.7809517865 0.17788134 0.38438696014 0.60631181711 0.82323535693 1.0172219679 1.1799687454 
1.3118704726 1.4175000338 1.5022335207 6.1892828907 6.1070320098 6.035312792 5.9728339911 5.9183214791 5.8706119594 
5.8286879411 5.7916808611 5.7588591896 0.093902416448 0.17615329733 0.2478725152 0.31035131605 0.36486382811 0.41257334776 
0.45449736604 0.4915044461 0.52432611754 3.3194739936 3.5259796137 3.7479044707 3.9648280105 4.1588146215 4.321561399 
4.4534631262 4.5590926874 4.6438261743 2.9637113136 2.7572056934 2.5352808365 2.3183572967 2.1243706857 1.9616239082 
1.829722181 1.7240926197 1.6393591329 3.23549507 3.3177459509 3.3894651688 3.4519439696 3.5064564817 3.5541660013 
3.5960900196 3.6330970997 3.6659187711 3.0476902371 2.9654393563 2.8937201384 2.8312413375 2.7767288255 2.7290193058 
2.6870952876 2.6500882075 2.617266536 6.2831853072 6.2831853072 6.2831853072 6.2831853072 3.1415926536 3.1415926536 
3.1415926536 3.1415926536 3.1415926536 6.1053039672 5.898798347 5.6768734901 5.4599499503 5.2659633393 5.1032165617 
4.9713148346 4.8656852733 4.7809517865 0.17788134 0.38438696014 0.60631181711 0.82323535693 1.0172219679 1.1799687454 
1.3118704726 1.4175000338 1.5022335207 6.1892828907 6.1070320098 6.035312792 5.9728339911 5.9183214791 5.8706119594 
5.8286879411 5.7916808611 5.7588591896 0.093902416448 0.17615329733 0.2478725152 0.31035131605 0.36486382811 0.41257334776 
0.45449736604 0.4915044461 0.52432611754 3.3194739936 3.5259796137 3.7479044707 3.9648280105 4.1588146215 4.321561399 
4.4534631262 4.5590926874 4.6438261743 2.9637113136 2.7572056934 2.5352808365 2.3183572967 2.1243706857 1.9616239082 
1.829722181 1.7240926197 1.6393591329 3.23549507 3.3177459509 3.3894651688 3.4519439696 3.5064564817 3.5541660013 
3.5960900196 3.6330970997 3.6659187711 3.0476902371 2.9654393563 2.8937201384 2.8312413375 2.7767288255 2.7290193058 
2.6870952876 2.6500882075 2.617266536 4.7123889804 4.7123889804 4.7123889804 4.7123889804 4.7123889804 4.7123889804 
4.7123889804 4.7123889804 4.7123889804 4.6087898617 4.4991390697 4.3857031936 4.2712800401 4.1588146215 4.0509635631 
3.94975894 3.8564636551 3.7716124825 4.8159880991 4.9256388911 5.0390747672 5.1534979207 5.2659633393 5.3738143976 
5.4750190208 5.5683143056 5.6531654782 4.6087898617 4.4991390697 4.3857031936 4.2712800401 4.1588146215 4.0509635631 
3.94975894 3.8564636551 3.7716124825 4.8159880991 4.9256388911 5.0390747672 5.1534979207 5.2659633393 5.3738143976 
5.4750190208 5.5683143056 5.6531654782 1.5707963268 1.5707963268 1.5707963268 1.5707963268 1.5707963268 1.5707963268 
1.5707963268 1.5707963268 1.5707963268 1.6743954455 1.7840462375 1.8974821136 2.0119052671 2.1243706857 2.232221744 
2.3334263672 2.426721652 2.5115728246 1.4671972081 1.3575464161 1.24411054 1.1296873865 1.0172219679 0.90937090954 
0.80816628637 0.71487100155 0.63001982895 1.6743954455 1.7840462375 1.8974821136 2.0119052671 2.1243706857 2.232221744 
2.3334263672 2.426721652 2.5115728246 1.4671972081 1.3575464161 1.24411054 1.1296873865 1.0172219679 0.90937090954 
0.80816628637 0.71487100155 0.63001982895 3.6007720849 3.4966939854 3.3839471039 3.2645756454 3.1415926536 3.0186096618 
2.8992382033 2.7864913217 2.6824132222 5.8240058758 5.9280839753 6.0408308569 6.1602023154 6.2831853072 0.12298299178 
0.2423544503 0.35510133185 0.45917943135 6.0560271438 5.7885595667 5.9702140275 5.5125918794 5.6029703303 5.7885595667 
5.2659633393 5.2659633393 5.2659633393 5.2659633393 5.0674903122 5.0120975802 4.9155579264 4.7123889804 4.1588146215 
4.9155579264 4.8353719722 4.7123889804 4.5092200343 4.1588146215 3.6362183941 4.8004512023 4.7123889804 4.5894059886 
4.4126803806 4.1588146215 3.8218076305 3.4545639333 4.7123889804 4.6243267584 4.5092200343 4.3572876485 4.1588146215 
3.9121860814 3.6362183941 3.368750817 6.0174235957 5.9434319871 5.8263323547 5.8809213739 5.7674481418 5.6279784266 
5.8278025282 5.718968232 5.5891129425 5.4372443565 5.7823484065 5.678536687 5.5575666702 5.4192596322 5.2659633393 
5.743164462 5.6444075337 5.5314983644 5.4046708639 5.2659633393 5.1195510325 5.7091357773 5.6152775188 5.5096229709 
5.3926039573 5.2659633393 5.1329233157 4.9978930058 5.6793730533 5.5901633916 5.4910209005 5.3824597928 5.2659633393 
5.1440684722 5.0201624502 4.8979782167 5.5683143056 5.4750190208 5.4750190208 5.3738143976 5.3738143976 5.3738143976 
5.2659633393 5.2659633393 5.2659633393 5.2659633393 5.1534979207 5.1534979207 5.1534979207 5.1534979207 5.1534979207 
5.0390747672 5.0390747672 5.0390747672 5.0390747672 5.0390747672 5.0390747672 4.9256388911 4.9256388911 4.9256388911 
4.9256388911 4.9256388911 4.9256388911 4.9256388911 4.8159880991 4.8159880991 4.8159880991 4.8159880991 4.8159880991 
4.8159880991 4.8159880991 4.8159880991 4.6087898617 4.6087898617 4.4991390697 4.6087898617 4.4991390697 4.3857031936 
4.6087898617 4.4991390697 4.3857031936 4.2712800401 4.6087898617 4.4991390697 4.3857031936 4.2712800401 4.1588146215 
4.6087898617 4.4991390697 4.3857031936 4.2712800401 4.1588146215 4.0509635631 4.6087898617 4.4991390697 4.3857031936 
4.2712800401 4.1588146215 4.0509635631 3.94975894 4.6087898617 4.4991390697 4.3857031936 4.2712800401 4.1588146215 
4.0509635631 3.94975894 3.8564636551 4.526799744 4.4046155105 4.426884955 4.2807094886 4.2918546451 4.3052269283 
4.1588146215 4.1588146215 4.1588146215 4.1588146215 4.042318168 4.0321740035 4.0201070968 4.0055183285 3.9875336042 
3.9337570603 3.9151549899 3.8932795963 3.8672112905 3.8356650183 3.7967995342 3.8346145692 3.809500442 3.7803704271 
3.7462412737 3.7058097288 3.657329819 3.5984456061 3.7454049075 3.7156421835 3.6816134988 3.6424295543 3.5969754326 
3.5438565869 3.4813459737 3.4073543651 3.5642842451 3.4524645613 3.5233842518 3.3320300872 3.403123212 3.4773852225 
3.20576226 3.2746326772 3.348015857 3.4255060145 3.0774230472 3.1415926536 3.2112816139 3.2864685043 3.3668817272 
2.95115522 3.00855263 3.0719036933 3.1415926536 3.2178377658 3.3005964304 2.8307207459 2.8800620952 2.9351694502 
2.9967168029 3.0653475414 3.1415926536 3.225752376 2.718901062 2.7598010554 2.8058000847 2.8576792927 2.91630358 
2.9825888767 3.0574329311 3.1415926536 3.5642842451 3.5233842518 3.4524645613 3.4773852225 3.403123212 3.3320300872 
3.4255060145 3.348015857 3.2746326772 3.20576226 3.3668817272 3.2864685043 3.2112816139 3.1415926536 3.0774230472 
3.3005964304 3.2178377658 3.1415926536 3.0719036933 3.00855263 2.95115522 3.225752376 3.1415926536 3.0653475414 
2.9967168029 2.9351694502 2.8800620952 2.8307207459 3.1415926536 3.0574329311 2.9825888767 2.91630358 2.8576792927 
2.8058000847 2.7598010554 2.718901062 4.526799744 4.426884955 4.4046155105 4.3052269283 4.2918546451 4.2807094886 
4.1588146215 4.1588146215 4.1588146215 4.1588146215 3.9875336042 4.0055183285 4.0201070968 4.0321740035 4.042318168 
3.7967995342 3.8356650183 3.8672112905 3.8932795963 3.9151549899 3.9337570603 3.5984456061 3.657329819 3.7058097288 
3.7462412737 3.7803704271 3.809500442 3.8346145692 3.4073543651 3.4813459737 3.5438565869 3.5969754326 3.6424295543 
3.6816134988 3.7156421835 3.7454049075 4.7123889804 4.8004512023 4.6243267584 4.9155579264 4.7123889804 4.5092200343 
5.0674903122 4.8353719722 4.5894059886 4.3572876485 5.2659633393 5.0120975802 4.7123889804 4.4126803806 4.1588146215 
5.5125918794 5.2659633393 4.9155579264 4.5092200343 4.1588146215 3.9121860814 5.7885595667 5.6029703303 5.2659633393 
4.7123889804 4.1588146215 3.8218076305 3.6362183941 6.0560271438 5.9702140275 5.7885595667 5.2659633393 4.1588146215 
3.6362183941 3.4545639333 3.368750817 0.22715816343 0.49462574053 0.3129712797 0.77059342779 0.68021497688 0.49462574053 
1.0172219679 1.0172219679 1.0172219679 1.0172219679 1.2156949949 1.271087727 1.3676273807 1.5707963268 2.1243706857 
1.3676273807 1.447813335 1.5707963268 1.7739652728 2.1243706857 2.6469669131 1.4827341049 1.5707963268 1.6937793186 
1.8705049266 2.1243706857 2.4613776767 2.8286213739 1.5707963268 1.6588585487 1.7739652728 1.9258976586 2.1243706857 
2.3709992258 2.6469669131 2.9144344902 1.7563855631 1.8785697967 1.8563003522 2.0024758186 1.9913306621 1.9779583789 
2.1243706857 2.1243706857 2.1243706857 2.1243706857 2.2408671392 2.2510113037 2.2630782103 2.2776669786 2.295651703 
2.3494282469 2.3680303173 2.3899057108 2.4159740166 2.4475202889 2.486385773 2.448570738 2.4736848652 2.5028148801 
2.5369440334 2.5773755784 2.6258554882 2.6847397011 2.5377803997 2.5675431237 2.6015718084 2.6407557529 2.6862098746 
2.7393287203 2.8018393335 2.8758309421 1.6743954455 1.6743954455 1.7840462375 1.6743954455 1.7840462375 1.8974821136 
1.6743954455 1.7840462375 1.8974821136 2.0119052671 1.6743954455 1.7840462375 1.8974821136 2.0119052671 2.1243706857 
1.6743954455 1.7840462375 1.8974821136 2.0119052671 2.1243706857 2.232221744 1.6743954455 1.7840462375 1.8974821136 
2.0119052671 2.1243706857 2.232221744 2.3334263672 1.6743954455 1.7840462375 1.8974821136 2.0119052671 2.1243706857 
2.232221744 2.3334263672 2.426721652 1.4671972081 1.3575464161 1.4671972081 1.24411054 1.3575464161 1.4671972081 
1.1296873865 1.24411054 1.3575464161 1.4671972081 1.0172219679 1.1296873865 1.24411054 1.3575464161 1.4671972081 
0.90937090954 1.0172219679 1.1296873865 1.24411054 1.3575464161 1.4671972081 0.80816628637 0.90937090954 1.0172219679 
1.1296873865 1.24411054 1.3575464161 1.4671972081 0.71487100155 0.80816628637 0.90937090954 1.0172219679 1.1296873865 
1.24411054 1.3575464161 1.4671972081 0.60381225391 0.57404952988 0.69302191562 0.54002084522 0.66790778838 0.79216440667 
0.50083690068 0.63877777351 0.77356233629 0.90072551443 0.45538277901 0.60464862014 0.75168694275 0.89058134991 1.0172219679 
0.40226393329 0.56421707518 0.72561863695 0.87851444325 1.0172219679 1.139116835 0.33975332011 0.51573716537 0.69407236469 
0.86392567495 1.0172219679 1.1502619915 1.2630228569 0.26576171152 0.45685295248 0.6552068806 0.84594095064 1.0172219679 
1.1636342747 1.2852923014 1.3852070904 0.22715816343 0.3129712797 0.49462574053 0.49462574053 0.68021497688 0.77059342779 
1.0172219679 1.0172219679 1.0172219679 1.0172219679 2.1243706857 1.5707963268 1.3676273807 1.271087727 1.2156949949 
2.6469669131 2.1243706857 1.7739652728 1.5707963268 1.447813335 1.3676273807 2.8286213739 2.4613776767 2.1243706857 
1.8705049266 1.6937793186 1.5707963268 1.4827341049 2.9144344902 2.6469669131 2.3709992258 2.1243706857 1.9258976586 
1.7739652728 1.6588585487 1.5707963268 1.7563855631 1.8563003522 1.8785697967 1.9779583789 1.9913306621 2.0024758186 
2.1243706857 2.1243706857 2.1243706857 2.1243706857 2.295651703 2.2776669786 2.2630782103 2.2510113037 2.2408671392 
2.486385773 2.4475202889 2.4159740166 2.3899057108 2.3680303173 2.3494282469 2.6847397011 2.6258554882 2.5773755784 
2.5369440334 2.5028148801 2.4736848652 2.448570738 2.8758309421 2.8018393335 2.7393287203 2.6862098746 2.6407557529 
2.6015718084 2.5675431237 2.5377803997 5.8604937156 5.901393709 5.9723133995 5.9473927383 6.0216547488 6.0927478736 
5.9992719463 6.0767621038 6.1501452836 6.2190157008 6.0578962336 6.1383094565 6.2134963469 0 0.064169606361 
6.1241815303 6.206940195 6.2831853072 0.069688960264 0.13304002361 0.19043743361 6.1990255847 0 0.07624511221 
0.14487585072 0.20642320337 0.26153055843 0.3108719077 0 0.084159722458 0.15900377685 0.22528907359 0.28391336087 
0.3357925689 0.38179159818 0.42269159155 5.8604937156 5.9723133995 5.901393709 6.0927478736 6.0216547488 5.9473927383 
6.2190157008 6.1501452836 6.0767621038 5.9992719463 0.064169606361 0 6.2134963469 6.1383094565 6.0578962336 
0.19043743361 0.13304002361 0.069688960264 6.2831853072 6.206940195 6.1241815303 0.3108719077 0.26153055843 0.20642320337 
0.14487585072 0.07624511221 6.2831853072 6.1990255847 0.42269159155 0.38179159818 0.3357925689 0.28391336087 0.22528907359 
0.15900377685 0.084159722458 0 5.6793730533 5.7091357773 5.5901633916 5.743164462 5.6152775188 5.4910209005 
5.7823484065 5.6444075337 5.5096229709 5.3824597928 5.8278025282 5.678536687 5.5314983644 5.3926039573 5.2659633393 
5.8809213739 5.718968232 5.5575666702 5.4046708639 5.2659633393 5.1440684722 5.9434319871 5.7674481418 5.5891129425 
5.4192596322 5.2659633393 5.1329233157 5.0201624502 6.0174235957 5.8263323547 5.6279784266 5.4372443565 5.2659633393 
5.1195510325 4.9978930058 4.8979782167 1.3852070904 1.2852923014 1.2630228569 1.1636342747 1.1502619915 1.139116835 
1.0172219679 1.0172219679 1.0172219679 1.0172219679 0.84594095064 0.86392567495 0.87851444325 0.89058134991 0.90072551443 
0.6552068806 0.69407236469 0.72561863695 0.75168694275 0.77356233629 0.79216440667 0.45685295248 0.51573716537 0.56421707518 
0.60464862014 0.63877777351 0.66790778838 0.69302191562 0.26576171152 0.33975332011 0.40226393329 0.45538277901 0.50083690068 
0.54002084522 0.57404952988 0.60381225391 
_paraPhiHalf 1 1002 double
0 3.1415926536 0 3.1415926536 1.5707963268 1.5707963268 1.5707963268 1.5707963268 2.5880182947 
0.5535743589 2.5880182947 0.5535743589 0 0 0 0 3.1415926536 3.1415926536 
3.1415926536 3.1415926536 3.1415926536 0.17788134 0.38438696014 0.60631181711 0.82323535693 1.0172219679 1.1799687454 
1.3118704726 1.4175000338 1.5022335207 0.17788134 0.38438696014 0.60631181711 0.82323535693 1.0172219679 1.1799687454 
1.3118704726 1.4175000338 1.5022335207 0.093902416448 0.17615329733 0.2478725152 0.31035131605 0.36486382811 0.41257334776 
0.45449736604 0.4915044461 0.52432611754 0.093902416448 0.17615329733 0.2478725152 0.31035131605 0.36486382811 0.41257334776 
0.45449736604 0.4915044461 0.52432611754 2.9637113136 2.7572056934 2.5352808365 2.3183572967 2.1243706857 1.9616239082 
1.829722181 1.7240926197 1.6393591329 2.9637113136 2.7572056934 2.5352808365 2.3183572967 2.1243706857 1.9616239082 
1.829722181 1.7240926197 1.6393591329 3.0476902371 2.9654393563 2.8937201384 2.8312413375 2.7767288255 2.7290193058 
2.6870952876 2.6500882075 2.617266536 3.0476902371 2.9654393563 2.8937201384 2.8312413375 2.7767288255 2.7290193058 
2.6870952876 2.6500882075 2.617266536 0 0 0 0 3.1415926536 3.1415926536 
3.1415926536 3.1415926536 3.1415926536 0.17788134 0.38438696014 0.60631181711 0.82323535693 1.0172219679 1.1799687454 
1.3118704726 1.4175000338 1.5022335207 0.17788134 0.38438696014 0.60631181711 0.82323535693 1.0172219679 1.1799687454 
1.3118704726 1.4175000338 1.5022335207 0.093902416448 0.17615329733 0.2478725152 0.31035131605 0.36486382811 0.41257334776 
0.45449736604 0.4915044461 0.52432611754 0.093902416448 0.17615329733 0.2478725152 0.31035131605 0.36486382811 0.41257334776 
0.45449736604 0.4915044461 0.52432611754 2.9637113136 2.7572056934 2.5352808365 2.3183572967 2.1243706857 1.9616239082 
1.829722181 1.7240926197 1.6393591329 2.9637113136 2.7572056934 2.5352808365 2.3183572967 2.1243706857 1.9616239082 
1.829722181 1.7240926197 1.6393591329 3.0476902371 2.9654393563 2.8937201384 2.8312413375 2.7767288255 2.7290193058 
2.6870952876 2.6500882075 2.617266536 3.0476902371 2.9654393563 2.8937201384 2.8312413375 2.7767288255 2.7290193058 
2.6870952876 2.6500882075 2.617266536 1.5707963268 1.5707963268 1.5707963268 1.5707963268 1.5707963268 1.5707963268 
1.5707963268 1.5707963268 1.5707963268 1.6743954455 1.7840462375 1.8974821136 2.0119052671 2.1243706857 2.232221744 
2.3334263672 2.426721652 2.5115728246 1.4671972081 1.3575464161 1.24411054 1.1296873865 1.0172219679 0.90937090954 
0.80816628637 0.71487100155 0.63001982895 1.6743954455 1.7840462375 1.8974821136 2.0119052671 2.1243706857 2.232221744 
2.3334263672 2.426721652 2.5115728246 1.4671972081 1.3575464161 1.24411054 1.1296873865 1.0172219679 0.90937090954 
0.80816628637 0.71487100155 0.63001982895 1.5707963268 1.5707963268 1.5707963268 1.5707963268 1.5707963268 1.5707963268 
1.5707963268 1.5707963268 1.5707963268 1.6743954455 1.7840462375 1.8974821136 2.0119052671 2.1243706857 2.232221744 
2.3334263672 2.426721652 2.5115728246 1.4671972081 1.3575464161 1.24411054 1.1296873865 1.0172219679 0.90937090954 
0.80816628637 0.71487100155 0.63001982895 1.6743954455 1.7840462375 1.8974821136 2.0119052671 2.1243706857 2.232221744 
2.3334263672 2.426721652 2.5115728246 1.4671972081 1.3575464161 1.24411054 1.1296873865 1.0172219679 0.90937090954 
0.80816628637 0.71487100155 0.63001982895 2.6824132222 2.7864913217 2.8992382033 3.0186096618 3.1415926536 3.0186096618 
2.8992382033 2.7864913217 2.6824132222 0.45917943135 0.35510133185 0.2423544503 0.12298299178 0 0.12298299178 
0.2423544503 0.35510133185 0.45917943135 0.22715816343 0.49462574053 0.3129712797 0.77059342779 0.68021497688 0.49462574053 
1.0172219679 1.0172219679 1.0172219679 1.0172219679 1.2156949949 1.271087727 1.3676273807 1.5707963268 2.1243706857 
1.3676273807 1.447813335 1.5707963268 1.7739652728 2.1243706857 2.6469669131 1.4827341049 1.5707963268 1.6937793186 
1.8705049266 2.1243706857 2.4613776767 2.8286213739 1.5707963268 1.6588585487 1.7739652728 1.9258976586 2.1243706857 
2.3709992258 2.6469669131 2.9144344902 0.26576171152 0.33975332011 0.45685295248 0.40226393329 0.51573716537 0.6552068806 
0.45538277901 0.56421707518 0.69407236469 0.84594095064 0.50083690068 0.60464862014 0.72561863695 0.86392567495 1.0172219679 
0.54002084522 0.63877777351 0.75168694275 0.87851444325 1.0172219679 1.1636342747 0.57404952988 0.66790778838 0.77356233629 
0.89058134991 1.0172219679 1.1502619915 1.2852923014 0.60381225391 0.69302191562 0.79216440667 0.90072551443 1.0172219679 
1.139116835 1.2630228569 1.3852070904 0.71487100155 0.80816628637 0.80816628637 0.90937090954 0.90937090954 0.90937090954 
1.0172219679 1.0172219679 1.0172219679 1.0172219679 1.1296873865 1.1296873865 1.1296873865 1.1296873865 1.1296873865 
1.24411054 1.24411054 1.24411054 1.24411054 1.24411054 1.24411054 1.3575464161 1.3575464161 1.3575464161 
1.3575464161 1.3575464161 1.3575464161 1.3575464161 1.4671972081 1.4671972081 1.4671972081 1.4671972081 1.4671972081 
1.4671972081 1.4671972081 1.4671972081 1.6743954455 1.6743954455 1.7840462375 1.6743954455 1.7840462375 1.8974821136 
1.6743954455 1.7840462375 1.8974821136 2.0119052671 1.6743954455 1.7840462375 1.8974821136 2.0119052671 2.1243706857 
1.6743954455 1.7840462375 1.8974821136 2.0119052671 2.1243706857 2.232221744 1.6743954455 1.7840462375 1.8974821136 
2.0119052671 2.1243706857 2.232221744 2.3334263672 1.6743954455 1.7840462375 1.8974821136 2.0119052671 2.1243706857 
2.232221744 2.3334263672 2.426721652 1.7563855631 1.8785697967 1.8563003522 2.0024758186 1.9913306621 1.9779583789 
2.1243706857 2.1243706857 2.1243706857 2.1243706857 2.2408671392 2.2510113037 2.2630782103 2.2776669786 2.295651703 
2.3494282469 2.3680303173 2.3899057108 2.4159740166 2.4475202889 2.486385773 2.448570738 2.4736848652 2.5028148801 
2.5369440334 2.5773755784 2.6258554882 2.6847397011 2.5377803997 2.5675431237 2.6015718084 2.6407557529 2.6862098746 
2.7393287203 2.8018393335 2.8758309421 2.718901062 2.8307207459 2.7598010554 2.95115522 2.8800620952 2.8058000847 
3.0774230472 3.00855263 2.9351694502 2.8576792927 3.0774230472 3.1415926536 3.0719036933 2.9967168029 2.91630358 
2.95115522 3.00855263 3.0719036933 3.1415926536 3.0653475414 2.9825888767 2.8307207459 2.8800620952 2.9351694502 
2.9967168029 3.0653475414 3.1415926536 3.0574329311 2.718901062 2.7598010554 2.8058000847 2.8576792927 2.91630358 
2.9825888767 3.0574329311 3.1415926536 2.718901062 2.7598010554 2.8307207459 2.8058000847 2.8800620952 2.95115522 
2.8576792927 2.9351694502 3.00855263 3.0774230472 2.91630358 2.9967168029 3.0719036933 3.1415926536 3.0774230472 
2.9825888767 3.0653475414 3.1415926536 3.0719036933 3.00855263 2.95115522 3.0574329311 3.1415926536 3.0653475414 