# vtk DataFile Version 5.1
vtk output
ASCII
DATASET POLYDATA
POINTS 1002 float
-10.7765 0.147984 -3.38447 11.348 -0.874092 -2.52104 -10.292 1.05192 3.74532 
10.6253 -0.924957 2.55723 -3.06271 2.40302 -1.98364 -1.9796 1.55617 1.36384 
-1.10688 -6.6615 -2.02802 -1.13079 -7.21176 2.13128 19.6817 8.75049 0.155809 
-16.0743 8.1099 0.235241 18.2255 -0.640472 0.0358176 -15.8727 -4.45421 -0.250082 
-9.48693 -0.172968 -3.31322 -7.99252 -0.584165 -3.26925 -6.27763 -1.10895 -3.22722 
-4.1627 -1.76869 -3.13379 -1.48407 -2.41673 -3.01679 1.54977 -2.74043 -2.93387 
4.51283 -2.60222 -2.85323 7.16602 -2.14229 -2.73101 9.44942 -1.53625 -2.60283 
-10.4539 0.672699 -3.483 -10.027 1.21837 -3.54833 -9.4606 1.78733 -3.52971 
-8.70526 2.33849 -3.45569 -7.80747 2.78958 -3.4034 -6.86327 3.11881 -3.32457 
-5.91408 3.33361 -3.08334 -4.99194 3.31703 -2.69195 -4.07413 2.9661 -2.29541 
-10.2604 -0.570388 -3.24219 -9.59752 -1.35599 -3.13403 -8.76507 -2.20699 -3.04725 
-7.7802 -3.09434 -2.94254 -6.67848 -3.94328 -2.82221 -5.50896 -4.67046 -2.65841 
-4.33717 -5.2856 -2.44648 -3.20104 -5.84001 -2.27475 -2.11431 -6.31056 -2.16019 
-11.8018 0.791089 -3.50041 -12.8406 1.54304 -3.50342 -13.851 2.42372 -3.33425 
-14.7727 3.43306 -3.05582 -15.5387 4.48216 -2.72978 -16.0872 5.42144 -2.31412 
-16.3953 6.24029 -1.76888 -16.4832 7.01313 -1.12244 -16.3688 7.67787 -0.433361 
-11.6579 -0.0546462 -3.36536 -12.4937 -0.372297 -3.30869 -13.3106 -0.768602 -3.18339 
-14.1153 -1.19645 -2.96028 -14.8177 -1.66495 -2.63922 -15.338 -2.21033 -2.31699 
-15.6587 -2.83516 -2.01921 -15.8054 -3.48815 -1.58515 -15.8584 -4.06142 -0.94601 
10.8119 -0.582685 -2.53811 10.0369 -0.333311 -2.54498 9.05032 -0.182903 -2.53688 
7.82942 -0.115725 -2.48695 6.3064 -0.0856356 -2.38904 4.47659 -0.107741 -2.2541 
2.38707 -0.0521457 -2.10823 0.213058 0.3945 -2.02013 -1.68896 1.30283 -2.00606 
10.6021 -1.60066 -2.52758 9.63633 -2.34149 -2.53091 8.455 -3.10117 -2.5261 
7.07353 -3.87251 -2.53469 5.5536 -4.58555 -2.55559 4.02175 -5.19626 -2.52401 
2.56735 -5.70424 -2.42097 1.20915 -6.09714 -2.29789 -0.0274263 -6.39988 -2.1742 
12.8181 0.0717358 -2.50011 14.2905 1.1768 -2.48562 15.7098 2.42506 -2.4331 
17.0248 3.81599 -2.32457 18.2021 5.22749 -2.15312 19.1712 6.50829 -1.89854 
19.8157 7.67446 -1.53478 20.084 8.61651 -1.03419 20.0192 9.00849 -0.432214 
12.6299 -0.624508 -2.4726 13.8526 -0.364408 -2.42061 15.0492 -0.140531 -2.34965 
16.1235 0.00904851 -2.19565 16.9288 0.0807093 -1.91528 17.568 0.071477 -1.61154 
18.1864 -0.024226 -1.34641 18.6155 -0.174294 -0.98935 18.6212 -0.365041 -0.484682 
-9.05489 0.612334 3.72828 -7.62191 0.00803914 3.64065 -5.87041 -0.829481 3.4199 
-3.69051 -1.74432 3.0881 -1.17192 -2.44721 2.79598 1.49927 -2.76013 2.60785 
4.16312 -2.6434 2.47587 6.63056 -2.18761 2.42267 8.78035 -1.5723 2.47237 
-9.89071 1.53915 3.61971 -9.37455 2.0121 3.50017 -8.73632 2.42201 3.39124 
-7.96979 2.73302 3.24221 -7.09253 2.87439 2.9965 -6.14117 2.8017 2.65235 
-5.13443 2.57722 2.27577 -4.08176 2.26218 1.92606 -3.01511 1.89522 1.61916 
-9.84152 0.288177 3.85477 -9.18437 -0.585456 3.93471 -8.3176 -1.61227 3.94608 
-7.30551 -2.77222 3.83477 -6.22705 -3.93313 3.61567 -5.15916 -4.9116 3.34682 
-4.1252 -5.64592 3.02489 -3.08672 -6.24033 2.67607 -2.06249 -6.77396 2.37748 
-11.2348 1.79838 3.64897 -12.1635 2.64553 3.49949 -13.0561 3.53108 3.28122 
-13.9226 4.41051 3.0135 -14.7433 5.28142 2.71565 -15.4172 6.10423 2.37227 
-15.8883 6.85299 1.95966 -16.174 7.50255 1.44896 -16.2435 7.94654 0.846808 
-11.2519 0.980764 3.76649 -12.2805 0.850412 3.6161 -13.3869 0.55885 3.26602 
-14.5143 -0.0096433 2.8325 -15.4984 -0.796365 2.34952 -16.2245 -1.65365 1.78221 
-16.6602 -2.55514 1.25306 -16.7243 -3.43871 0.812406 -16.4058 -4.10785 0.322561 
9.98949 -0.75008 2.46754 9.1656 -0.605095 2.383 8.14744 -0.50936 2.27176 
6.90505 -0.471206 2.1116 5.42572 -0.413869 1.998 3.8069 -0.283279 1.94263 
2.19214 -0.0895491 1.81764 0.661139 0.238702 1.62567 -0.743011 0.795536 1.46602 
10.0313 -1.57142 2.56975 9.26213 -2.32912 2.52634 8.31415 -3.15931 2.44932 
7.17626 -3.98796 2.3776 5.83685 -4.74759 2.32062 4.31703 -5.4056 2.2701 
2.73699 -5.98468 2.2244 1.28095 -6.5006 2.19019 0.014002 -6.91558 2.16748 
12.0267 -0.0918103 2.55473 13.451 0.894586 2.50409 14.8109 2.02614 2.45326 
16.0386 3.24323 2.40105 17.1292 4.46402 2.24568 18.0634 5.60473 1.97512 
18.8031 6.65066 1.67336 19.3458 7.62624 1.29573 19.6579 8.39983 0.763498 
12.0394 -0.640247 2.63612 13.4373 -0.36991 2.63144 14.7256 -0.155058 2.5209 
15.8469 -0.0259648 2.34949 16.7537 0.0211236 2.10431 17.3915 0.00150366 1.7287 
17.8286 -0.0799469 1.29391 18.1818 -0.200492 0.894922 18.3728 -0.365555 0.493046 
-3.00626 2.67036 -1.74358 -2.83418 2.83023 -1.40817 -2.63884 2.8839 -1.02671 
-2.48477 2.91405 -0.666124 -2.36942 2.98392 -0.283958 -2.29848 2.96286 0.162577 
-2.25356 2.70887 0.589774 -2.18068 2.30764 0.918867 -2.07659 1.90811 1.16298 
-0.880162 1.26518 -1.77902 2.08665 0.822296 -1.63327 5.36321 1.30534 -1.46241 
8.44489 2.25044 -1.20508 11.2403 3.31623 -0.951412 13.7357 4.58797 -0.77063 
15.8416 5.95384 -0.625365 17.5501 7.18302 -0.463193 18.835 8.16152 -0.213991 
-4.6037 3.93789 -2.06216 -5.84771 5.28017 -2.01538 -7.16521 6.19678 -1.81207 
-8.64969 6.88013 -1.50914 -10.1078 7.42232 -1.17744 -11.4854 7.76359 -0.875288 
-12.8005 8.02829 -0.619188 -14.0245 8.26901 -0.36213 -15.1411 8.32903 -0.0707443 
-0.077358 0.905069 1.21789 2.19324 0.732092 1.13392 4.7286 1.10425 1.11388 
7.32101 1.84426 1.13554 9.83723 2.77076 1.14984 12.3412 3.85192 1.1259 
14.8265 5.10586 1.01152 17.0073 6.48198 0.76498 18.6163 7.78489 0.453208 
-3.73776 2.79617 1.48007 -5.44036 4.34787 1.75083 -7.05546 5.90588 2.13014 
-8.57698 7.22098 2.37509 -10.0025 8.17383 2.30166 -11.3346 8.68853 2.00642 
-12.6217 8.80971 1.62091 -13.8981 8.72543 1.17223 -15.0872 8.51447 0.697906 
-1.13997 -7.00439 -1.79081 -1.19081 -7.35389 -1.49716 -1.2797 -7.6978 -1.14906 
-1.4222 -8.01171 -0.668829 -1.58036 -8.23874 -0.0493372 -1.6884 -8.30186 0.560341 
-1.6842 -8.17286 1.08223 -1.53775 -7.9089 1.53881 -1.31664 -7.57936 1.89778 
0.572094 -6.77545 -1.93893 2.42423 -6.82781 -1.82105 4.4304 -6.74489 -1.73089 
6.60872 -6.47972 -1.62475 8.76501 -6.1875 -1.45401 10.6684 -5.80873 -1.27278 
12.5757 -4.85466 -1.04658 14.7416 -3.29245 -0.696041 16.7869 -1.74925 -0.298834 
-2.72342 -6.70195 -1.91807 -4.37698 -6.65203 -1.71311 -6.05702 -6.48937 -1.49164 
-7.75663 -6.3121 -1.33388 -9.44576 -6.18032 -1.17546 -11.0538 -5.96073 -0.99147 
-12.4847 -5.61278 -0.860573 -13.729 -5.27972 -0.735262 -14.8585 -4.94899 -0.521432 
0.499998 -7.34937 1.89686 2.33652 -7.23546 1.58444 4.50539 -6.93408 1.27825 
6.93338 -6.66372 1.14185 9.26423 -6.387 1.14687 11.3123 -5.77394 1.08292 
13.2154 -4.61542 0.876805 15.0827 -3.10749 0.610086 16.8147 -1.6967 0.329412 
-2.85761 -7.21321 2.21928 -4.65773 -7.28397 2.28808 -6.37092 -7.40999 2.2903 
-8.03768 -7.34201 2.16877 -9.77564 -7.01164 1.91165 -11.4692 -6.59431 1.54668 
-12.9696 -6.12709 1.13051 -14.2284 -5.60252 0.701186 -15.1881 -5.0609 0.241472 
20.5688 9.20306 0.265132 21.4415 9.03969 0.346904 22.2743 8.20704 0.276605 
22.7589 7.03467 0.117247 22.6405 5.8744 0.0501154 22.0398 4.62646 0.074807 
21.2484 3.11858 0.0738163 20.423 1.62903 0.0429294 19.4739 0.428641 0.0314951 
-17.0502 7.39524 0.123641 -17.8239 6.3466 -0.0155481 -18.3226 5.08994 -0.163807 
-18.6136 3.72137 -0.310695 -18.8051 2.28887 -0.452641 -18.803 0.872475 -0.563717 
-18.4147 -0.572515 -0.59658 -17.6835 -2.09369 -0.529251 -16.8006 -3.46585 -0.395329 
-9.05674 0.29776 -3.44153 -8.53567 0.793425 -3.54203 -7.48702 -0.166204 -3.39699 
-7.82836 1.30831 -3.51296 -6.85208 0.263902 -3.4323 -5.6243 -0.797128 -3.27464 
-6.89447 1.74248 -3.39807 -5.93691 0.652712 -3.28265 -4.7126 -0.513196 -3.14764 
-3.13856 -1.59794 -3.06706 -5.89335 1.97607 -3.31169 -4.82522 0.834046 -3.10469 
-3.48322 -0.322282 -2.89954 -1.77483 -1.41748 -2.85014 0.00288822 -2.22946 -2.90177 
-4.92725 2.03215 -3.14436 -3.70969 0.755004 -2.98328 -2.15437 -0.320871 -2.75035 
-0.236937 -1.22229 -2.66641 1.68373 -1.89817 -2.74171 3.26484 -2.31842 -2.82599 
-3.93279 1.94381 -2.76611 -2.51424 0.592267 -2.72279 -0.756228 -0.385885 -2.62496 
1.28848 -0.997718 -2.59477 3.30455 -1.40779 -2.66747 4.93642 -1.68838 -2.73609 
6.17844 -1.91501 -2.74654 -2.86065 1.67162 -2.32579 -1.16945 0.463742 -2.32722 
0.818026 -0.302331 -2.36576 2.88693 -0.632361 -2.45747 4.83363 -0.790521 -2.57965 
6.44361 -0.91697 -2.66277 7.69081 -1.06706 -2.66383 8.68345 -1.28281 -2.63109 
-11.5097 1.4395 -3.54473 -12.5498 2.32405 -3.45276 -11.0643 2.11587 -3.48842 
-13.4991 3.29514 -3.20941 -12.0368 3.11985 -3.28828 -10.4303 2.78995 -3.37239 
-14.3257 4.32193 -2.87143 -12.8683 4.13754 -3.00268 -11.2974 3.86833 -3.13605 
-9.62717 3.39025 -3.29927 -14.9787 5.34892 -2.43653 -13.5739 5.14324 -2.61793 
-11.9851 4.90053 -2.83082 -10.4264 4.47299 -3.03933 -8.70338 3.85748 -3.23899 
-15.3549 6.30089 -1.90741 -14.0813 6.1418 -2.10886 -12.5162 5.8801 -2.38891 
-10.9762 5.47088 -2.63702 -9.4138 4.87608 -2.86055 -7.64525 4.22477 -3.06281 
-15.4514 7.1478 -1.32713 -14.2696 7.04912 -1.54242 -12.8323 6.80101 -1.82831 
-11.3051 6.40117 -2.10242 -9.81226 5.79103 -2.33143 -8.17796 5.17363 -2.58273 
-6.53287 4.47484 -2.75765 -15.3621 7.84797 -0.710777 -14.205 7.76425 -0.962207 
-12.8935 7.53219 -1.22407 -11.4601 7.21045 -1.49711 -10.0047 6.67767 -1.75951 
-8.46109 6.02677 -2.03778 -6.91146 5.3847 -2.30129 -5.52846 4.4145 -2.40415 
-14.0268 8.63228 0.369162 -12.7649 8.78689 0.817827 -12.825 8.45703 0.0535825 
-11.4584 8.84588 1.24345 -11.5274 8.56601 0.469493 -11.5369 8.16459 -0.224227 
-10.1189 8.63782 1.65933 -10.156 8.59719 0.868667 -10.1657 8.27258 0.122007 
-10.157 7.91741 -0.555579 -8.71512 7.93557 1.97158 -8.71852 8.29771 1.28048 
-8.68749 8.25811 0.450239 -8.69772 8.01605 -0.322293 -8.69568 7.5716 -0.969568 
-7.23452 6.69069 1.92964 -7.26486 7.3648 1.49758 -7.21126 7.72215 0.777548 
-7.20912 7.73499 -0.0519888 -7.23328 7.45837 -0.766874 -7.20398 6.89455 -1.33415 
[...]
POINT_DATA 1002
FIELD FieldData 4
_paraPhi 1 1002 double
6.2831853072 3.1415926536 6.2831853072 3.1415926536 4.7123889804 4.7123889804 1.5707963268 1.5707963268 3.6951670125 
5.7296109483 2.5880182947 0.5535743589 6.2831853072 6.2831853072 6.2831853072 6.2831853072 3.1415926536 3.1415926536 
3.1415926536 3.1415926536 3.1415926536 6.1053039672 5.898798347 5.6768734901 5.4599499503 5.2659633393 5.1032165617 
4.9713148346 4.8656852733 4.7809517865 0.17788134 0.38438696014 0.60631181711 0.82323535693 1.0172219679 1.1799687454 
1.3118704726 1.4175000338 1.5022335207 6.1892828907 6.1070320098 6.035312792 5.9728339911 5.9183214791 5.8706119594 
5.8286879411 5.7916808611 5.7588591896 0.093902416448 0.17615329733 0.2478725152 0.31035131605 0.36486382811 0.41257334776 
0.45449736604 0.4915044461 0.52432611754 3.3194739936 3.5259796137 3.7479044707 3.9648280105 4.1588146215 4.321561399 
4.4534631262 4.5590926874 4.6438261743 2.9637113136 2.7572056934 2.5352808365 2.3183572967 2.1243706857 1.9616239082 
1.829722181 1.7240926197 1.6393591329 3.23549507 3.3177459509 3.3894651688 3.4519439696 3.5064564817 3.5541660013 
3.5960900196 3.6330970997 3.6659187711 3.0476902371 2.9654393563 2.8937201384 2.8312413375 2.7767288255 2.7290193058 
2.6870952876 2.6500882075 2.617266536 6.2831853072 6.2831853072 6.2831853072 6.2831853072 3.1415926536 3.1415926536 
3.1415926536 3.1415926536 3.1415926536 6.1053039672 5.898798347 5.6768734901 5.4599499503 5.2659633393 5.1032165617 
4.9713148346 4.8656852733 4.7809517865 0.17788134 0.38438696014 0.60631181711 0.82323535693 1.0172219679 1.1799687454 
1.3118704726 1.4175000338 1.5022335207 6.1892828907 6.1070320098 6.035312792 5.9728339911 5.9183214791 5.8706119594 
5.8286879411 5.7916808611 5.7588591896 0.093902416448 0.17615329733 0.2478725152 0.31035131605 0.36486382811 0.41257334776 
0.45449736604 0.4915044461 0.52432611754 3.3194739936 3.5259796137 3.7479044707 3.9648280105 4.1588146215 4.321561399 
4.4534631262 4.5590926874 4.6438261743 2.9637113136 2.7572056934 2.5352808365 2.3183572967 2.1243706857 1.9616239082 
1.829722181 1.7240926197 1.6393591329 3.23549507 3.3177459509 3.3894651688 3.4519439696 3.5064564817 3.5541660013 
3.5960900196 3.6330970997 3.6659187711 3.0476902371 2.9654393563 2.8937201384 2.8312413375 2.7767288255 2.7290193058 
2.6870952876 2.6500882075 2.617266536 4.7123889804 4.7123889804 4.7123889804 4.7123889804 4.7123889804 4.7123889804 
4.7123889804 4.7123889804 4.7123889804 4.6087898617 4.4991390697 4.3857031936 4.2712800401 4.1588146215 4.0509635631 
3.94975894 3.8564636551 3.7716124825 4.8159880991 4.9256388911 5.0390747672 5.1534979207 5.2659633393 5.3738143976 
5.4750190208 5.5683143056 5.6531654782 4.6087898617 4.4991390697 4.3857031936 4.2712800401 4.1588146215 4.0509635631 
3.94975894 3.8564636551 3.7716124825 4.8159880991 4.9256388911 5.0390747672 5.1534979207 5.2659633393 5.3738143976 
5.4750190208 5.5683143056 5.6531654782 1.5707963268 1.5707963268 1.5707963268 1.5707963268 1.5707963268 1.5707963268 
1.5707963268 1.5707963268 1.5707963268 1.6743954455 1.7840462375 1.8974821136 2.0119052671 2.1243706857 2.232221744 
2.3334263672 2.426721652 2.5115728246 1.4671972081 1.3575464161 1.24411054 1.1296873865 1.0172219679 0.90937090954 
0.80816628637 0.71487100155 0.63001982895 1.6743954455 1.7840462375 1.8974821136 2.0119052671 2.1243706857 2.232221744 
2.3334263672 2.426721652 2.5115728246 1.4671972081 1.3575464161 1.24411054 1.1296873865 1.0172219679 0.90937090954 
0.80816628637 0.71487100155 0.63001982895 3.6007720849 3.4966939854 3.3839471039 3.2645756454 3.1415926536 3.0186096618 
2.8992382033 2.7864913217 2.6824132222 5.8240058758 5.9280839753 6.0408308569 6.1602023154 6.2831853072 0.12298299178 
0.2423544503 0.35510133185 0.45917943135 6.0560271438 5.7885595667 5.9702140275 5.5125918794 5.6029703303 5.7885595667 
5.2659633393 5.2659633393 5.2659633393 5.2659633393 5.0674903122 5.0120975802 4.9155579264 4.7123889804 4.1588146215 
4.9155579264 4.8353719722 4.7123889804 4.5092200343 4.1588146215 3.6362183941 4.8004512023 4.7123889804 4.5894059886 
4.4126803806 4.1588146215 3.8218076305 3.4545639333 4.7123889804 4.6243267584 4.5092200343 4.3572876485 4.1588146215 
3.9121860814 3.6362183941 3.368750817 6.0174235957 5.9434319871 5.8263323547 5.8809213739 5.7674481418 5.6279784266 
5.8278025282 5.718968232 5.5891129425 5.4372443565 5.7823484065 5.678536687 5.5575666702 5.4192596322 5.2659633393 
5.743164462 5.6444075337 5.5314983644 5.4046708639 5.2659633393 5.1195510325 5.7091357773 5.6152775188 5.5096229709 
5.3926039573 5.2659633393 5.1329233157 4.9978930058 5.6793730533 5.5901633916 5.4910209005 5.3824597928 5.2659633393 
5.1440684722 5.0201624502 4.8979782167 5.5683143056 5.4750190208 5.4750190208 5.3738143976 5.3738143976 5.3738143976 
5.2659633393 5.2659633393 5.2659633393 5.2659633393 5.1534979207 5.1534979207 5.1534979207 5.1534979207 5.1534979207 
5.0390747672 5.0390747672 5.0390747672 5.0390747672 5.0390747672 5.0390747672 4.9256388911 4.9256388911 4.9256388911 
4.9256388911 4.9256388911 4.9256388911 4.9256388911 4.8159880991 4.8159880991 4.8159880991 4.8159880991 4.8159880991 
4.8159880991 4.8159880991 4.8159880991 4.6087898617 4.6087898617 4.4991390697 4.6087898617 4.4991390697 4.3857031936 
4.6087898617 4.4991390697 4.3857031936 4.2712800401 4.6087898617 4.4991390697 4.3857031936 4.2712800401 4.1588146215 
4.6087898617 4.4991390697 4.3857031936 4.2712800401 4.1588146215 4.0509635631 4.6087898617 4.4991390697 4.3857031936 
4.2712800401 4.1588146215 4.0509635631 3.94975894 4.6087898617 4.4991390697 4.3857031936 4.2712800401 4.1588146215 
4.0509635631 3.94975894 3.8564636551 4.526799744 4.4046155105 4.426884955 4.2807094886 4.2918546451 4.3052269283 
4.1588146215 4.1588146215 4.1588146215 4.1588146215 4.042318168 4.0321740035 4.0201070968 4.0055183285 3.9875336042 
3.9337570603 3.9151549899 3.8932795963 3.8672112905 3.8356650183 3.7967995342 3.8346145692 3.809500442 3.7803704271 
3.7462412737 3.7058097288 3.657329819 3.5984456061 3.7454049075 3.7156421835 3.6816134988 3.6424295543 3.5969754326 
3.5438565869 3.4813459737 3.4073543651 3.5642842451 3.4524645613 3.5233842518 3.3320300872 3.403123212 3.4773852225 
3.20576226 3.2746326772 3.348015857 3.4255060145 3.0774230472 3.1415926536 3.2112816139 3.2864685043 3.3668817272 
2.95115522 3.00855263 3.0719036933 3.1415926536 3.2178377658 3.3005964304 2.8307207459 2.8800620952 2.9351694502 
2.9967168029 3.0653475414 3.1415926536 3.225752376 2.718901062 2.7598010554 2.8058000847 2.8576792927 2.91630358 
2.9825888767 3.0574329311 3.1415926536 3.5642842451 3.5233842518 3.4524645613 3.4773852225 3.403123212 3.3320300872 
3.4255060145 3.348015857 3.2746326772 3.20576226 3.3668817272 3.2864685043 3.2112816139 3.1415926536 3.0774230472 
3.3005964304 3.2178377658 3.1415926536 3.0719036933 3.00855263 2.95115522 3.225752376 3.1415926536 3.0653475414 
2.9967168029 2.9351694502 2.8800620952 2.8307207459 3.1415926536 3.0574329311 2.9825888767 2.91630358 2.8576792927 
2.8058000847 2.7598010554 2.718901062 4.526799744 4.426884955 4.4046155105 4.3052269283 4.2918546451 4.2807094886 
4.1588146215 4.1588146215 4.1588146215 4.1588146215 3.9875336042 4.0055183285 4.0201070968 4.0321740035 4.042318168 
3.7967995342 3.8356650183 3.8672112905 3.8932795963 3.9151549899 3.9337570603 3.5984456061 3.657329819 3.7058097288 
3.7462412737 3.7803704271 3.809500442 3.8346145692 3.4073543651 3.4813459737 3.5438565869 3.5969754326 3.6424295543 
3.6816134988 3.7156421835 3.7454049075 4.7123889804 4.8004512023 4.6243267584 4.9155579264 4.7123889804 4.5092200343 
5.0674903122 4.8353719722 4.5894059886 4.3572876485 5.2659633393 5.0120975802 4.7123889804 4.4126803806 4.1588146215 
5.5125918794 5.2659633393 4.9155579264 4.5092200343 4.1588146215 3.9121860814 5.7885595667 5.6029703303 5.2659633393 
4.7123889804 4.1588146215 3.8218076305 3.6362183941 6.0560271438 5.9702140275 5.7885595667 5.2659633393 4.1588146215 
3.6362183941 3.4545639333 3.368750817 0.22715816343 0.49462574053 0.3129712797 0.77059342779 0.68021497688 0.49462574053 
1.0172219679 1.0172219679 1.0172219679 1.0172219679 1.2156949949 1.271087727 1.3676273807 1.5707963268 2.1243706857 
1.3676273807 1.447813335 1.5707963268 1.7739652728 2.1243706857 2.6469669131 1.4827341049 1.5707963268 1.6937793186 
1.8705049266 2.1243706857 2.4613776767 2.8286213739 1.5707963268 1.6588585487 1.7739652728 1.9258976586 2.1243706857 
2.3709992258 2.6469669131 2.9144344902 1.7563855631 1.8785697967 1.8563003522 2.0024758186 1.9913306621 1.9779583789 
2.1243706857 2.1243706857 2.1243706857 2.1243706857 2.2408671392 2.2510113037 2.2630782103 2.2776669786 2.295651703 
2.3494282469 2.3680303173 2.3899057108 2.4159740166 2.4475202889 2.486385773 2.448570738 2.4736848652 2.5028148801 
2.5369440334 2.5773755784 2.6258554882 2.6847397011 2.5377803997 2.5675431237 2.6015718084 2.6407557529 2.6862098746 
2.7393287203 2.8018393335 2.8758309421 1.6743954455 1.6743954455 1.7840462375 1.6743954455 1.7840462375 1.8974821136 
1.6743954455 1.7840462375 1.8974821136 2.0119052671 1.6743954455 1.7840462375 1.8974821136 2.0119052671 2.1243706857 
1.6743954455 1.7840462375 1.8974821136 2.0119052671 2.1243706857 2.232221744 1.6743954455 1.7840462375 1.8974821136 
2.0119052671 2.1243706857 2.232221744 2.3334263672 1.6743954455 1.7840462375 1.8974821136 2.0119052671 2.1243706857 
2.232221744 2.3334263672 2.426721652 1.4671972081 1.3575464161 1.4671972081 1.24411054 1.3575464161 1.4671972081 
1.1296873865 1.24411054 1.3575464161 1.4671972081 1.0172219679 1.1296873865 1.24411054 1.3575464161 1.4671972081 
0.90937090954 1.0172219679 1.1296873865 1.24411054 1.3575464161 1.4671972081 0.80816628637 0.90937090954 1.0172219679 
1.1296873865 1.24411054 1.3575464161 1.4671972081 0.71487100155 0.80816628637 0.90937090954 1.0172219679 1.1296873865 
1.24411054 1.3575464161 1.4671972081 0.60381225391 0.57404952988 0.69302191562 0.54002084522 0.66790778838 0.79216440667 
0.50083690068 0.63877777351 0.77356233629 0.90072551443 0.45538277901 0.60464862014 0.75168694275 0.89058134991 1.0172219679 
0.40226393329 0.56421707518 0.72561863695 0.87851444325 1.0172219679 1.139116835 0.33975332011 0.51573716537 0.69407236469 
0.86392567495 1.0172219679 1.1502619915 1.2630228569 0.26576171152 0.45685295248 0.6552068806 0.84594095064 1.0172219679 
1.1636342747 1.2852923014 1.3852070904 0.22715816343 0.3129712797 0.49462574053 0.49462574053 0.68021497688 0.77059342779 
1.0172219679 1.0172219679 1.0172219679 1.0172219679 2.1243706857 1.5707963268 1.3676273807 1.271087727 1.2156949949 
2.6469669131 2.1243706857 1.7739652728 1.5707963268 1.447813335 1.3676273807 2.8286213739 2.4613776767 2.1243706857 
1.8705049266 1.6937793186 1.5707963268 1.4827341049 2.9144344902 2.6469669131 2.3709992258 2.1243706857 1.9258976586 
1.7739652728 1.6588585487 1.5707963268 1.7563855631 1.8563003522 1.8785697967 1.9779583789 1.9913306621 2.0024758186 
2.1243706857 2.1243706857 2.1243706857 2.1243706857 2.295651703 2.2776669786 2.2630782103 2.2510113037 2.2408671392 
2.486385773 2.4475202889 2.4159740166 2.3899057108 2.3680303173 2.3494282469 2.6847397011 2.6258554882 2.5773755784 
2.5369440334 2.5028148801 2.4736848652 2.448570738 2.8758309421 2.8018393335 2.7393287203 2.6862098746 2.6407557529 
2.6015718084 2.5675431237 2.5377803997 5.8604937156 5.901393709 5.9723133995 5.9473927383 6.0216547488 6.0927478736 
5.9992719463 6.0767621038 6.1501452836 6.2190157008 6.0578962336 6.1383094565 6.2134963469 0 0.064169606361 
6.1241815303 6.206940195 6.2831853072 0.069688960264 0.13304002361 0.19043743361 6.1990255847 0 0.07624511221 
0.14487585072 0.20642320337 0.26153055843 0.3108719077 0 0.084159722458 0.15900377685 0.22528907359 0.28391336087 
0.3357925689 0.38179159818 0.42269159155 5.8604937156 5.9723133995 5.901393709 6.0927478736 6.0216547488 5.9473927383 
6.2190157008 6.1501452836 6.0767621038 5.9992719463 0.064169606361 0 6.2134963469 6.1383094565 6.0578962336 
0.19043743361 0.13304002361 0.069688960264 6.2831853072 6.206940195 6.1241815303 0.3108719077 0.26153055843 0.20642320337 
0.14487585072 0.07624511221 6.2831853072 6.1990255847 0.42269159155 0.38179159818 0.3357925689 0.28391336087 0.22528907359 
0.15900377685 0.084159722458 0 5.6793730533 5.7091357773 5.5901633916 5.743164462 5.6152775188 5.4910209005 
5.7823484065 5.6444075337 5.5096229709 5.3824597928 5.8278025282 5.678536687 5.5314983644 5.3926039573 5.2659633393 
5.8809213739 5.718968232 5.5575666702 5.4046708639 5.2659633393 5.1440684722 5.9434319871 5.7674481418 5.5891129425 
5.4192596322 5.2659633393 5.1329233157 5.0201624502 6.0174235957 5.8263323547 5.6279784266 5.4372443565 5.2659633393 
5.1195510325 4.9978930058 4.8979782167 1.3852070904 1.2852923014 1.2630228569 1.1636342747 1.1502619915 1.139116835 
1.0172219679 1.0172219679 1.0172219679 1.0172219679 0.84594095064 0.86392567495 0.87851444325 0.89058134991 0.90072551443 
0.6552068806 0.69407236469 0.72561863695 0.75168694275 0.77356233629 0.79216440667 0.45685295248 0.51573716537 0.56421707518 
0.60464862014 0.63877777351 0.66790778838 0.69302191562 0.26576171152 0.33975332011 0.40226393329 0.45538277901 0.50083690068 
0.54002084522 0.57404952988 0.60381225391 
_paraPhiHalf 1 1002 double
0 3.1415926536 0 3.1415926536 1.5707963268 1.5707963268 1.5707963268 1.5707963268 2.5880182947 
0.5535743589 2.5880182947 0.5535743589 0 0 0 0 3.1415926536 3.1415926536 
3.1415926536 3.1415926536 3.1415926536 0.17788134 0.38438696014 0.60631181711 0.82323535693 1.0172219679 1.1799687454 
1.3118704726 1.4175000338 1.5022335207 0.17788134 0.38438696014 0.60631181711 0.82323535693 1.0172219679 1.1799687454 
1.3118704726 1.4175000338 1.5022335207 0.093902416448 0.17615329733 0.2478725152 0.31035131605 0.36486382811 0.41257334776 
0.45449736604 0.4915044461 0.52432611754 0.093902416448 0.17615329733 0.2478725152 0.31035131605 0.36486382811 0.41257334776 
0.45449736604 0.4915044461 0.52432611754 2.9637113136 2.7572056934 2.5352808365 2.3183572967 2.1243706857 1.9616239082 
1.829722181 1.7240926197 1.6393591329 2.9637113136 2.7572056934 2.5352808365 2.3183572967 2.1243706857 1.9616239082 
1.829722181 1.7240926197 1.6393591329 3.0476902371 2.9654393563 2.8937201384 2.8312413375 2.7767288255 2.7290193058 
2.6870952876 2.6500882075 2.617266536 3.0476902371 2.9654393563 2.8937201384 2.8312413375 2.7767288255 2.7290193058 
2.6870952876 2.6500882075 2.617266536 0 0 0 0 3.1415926536 3.1415926536 
3.1415926536 3.1415926536 3.1415926536 0.17788134 0.38438696014 0.60631181711 0.82323535693 1.0172219679 1.1799687454 
1.3118704726 1.4175000338 1.5022335207 0.17788134 0.38438696014 0.60631181711 0.82323535693 1.0172219679 1.1799687454 
1.3118704726 1.4175000338 1.5022335207 0.093902416448 0.17615329733 0.2478725152 0.31035131605 0.36486382811 0.41257334776 
0.45449736604 0.4915044461 0.52432611754 0.093902416448 0.17615329733 0.2478725152 0.31035131605 0.36486382811 0.41257334776 
0.45449736604 0.4915044461 0.52432611754 2.9637113136 2.7572056934 2.5352808365 2.3183572967 2.1243706857 1.9616239082 
1.829722181 1.7240926197 1.6393591329 2.9637113136 2.7572056934 2.5352808365 2.3183572967 2.1243706857 1.9616239082 
1.829722181 1.7240926197 1.6393591329 3.0476902371 2.9654393563 2.8937201384 2.8312413375 2.7767288255 2.7290193058 
2.6870952876 2.6500882075 2.617266536 3.0476902371 2.9654393563 2.8937201384 2.8312413375 2.7767288255 2.7290193058 
2.6870952876 2.6500882075 2.617266536 1.5707963268 1.5707963268 1.5707963268 1.5707963268 1.5707963268 1.5707963268 
1.5707963268 1.5707963268 1.5707963268 1.6743954455 1.7840462375 1.8974821136 2.0119052671 2.1243706857 2.232221744 
2.3334263672 2.426721652 2.5115728246 1.4671972081 1.3575464161 1.24411054 1.1296873865 1.0172219679 0.90937090954 
0.80816628637 0.71487100155 0.63001982895 1.6743954455 1.7840462375 1.8974821136 2.0119052671 2.1243706857 2.232221744 
2.3334263672 2.426721652 2.5115728246 1.4671972081 1.3575464161 1.24411054 1.1296873865 1.0172219679 0.90937090954 
0.80816628637 0.71487100155 0.63001982895 1.5707963268 1.5707963268 1.5707963268 1.5707963268 1.5707963268 1.5707963268 
1.5707963268 1.5707963268 1.5707963268 1.6743954455 1.7840462375 1.8974821136 2.0119052671 2.1243706857 2.232221744 
2.3334263672 2.426721652 2.5115728246 1.4671972081 1.3575464161 1.24411054 1.1296873865 1.0172219679 0.90937090954 
0.80816628637 0.71487100155 0.63001982895 1.6743954455 1.7840462375 1.8974821136 2.0119052671 2.1243706857 2.232221744 
2.3334263672 2.426721652 2.5115728246 1.4671972081 1.3575464161 1.24411054 1.1296873865 1.0172219679 0.90937090954 
0.80816628637 0.71487100155 0.63001982895 2.6824132222 2.7864913217 2.8992382033 3.0186096618 3.1415926536 3.0186096618 
2.8992382033 2.7864913217 2.6824132222 0.45917943135 0.35510133185 0.2423544503 0.12298299178 0 0.12298299178 
0.2423544503 0.35510133185 0.45917943135 0.22715816343 0.49462574053 0.3129712797 0.77059342779 0.68021497688 0.49462574053 
1.0172219679 1.0172219679 1.0172219679 1.0172219679 1.2156949949 1.271087727 1.3676273807 1.5707963268 2.1243706857 
1.3676273807 1.447813335 1.5707963268 1.7739652728 2.1243706857 2.6469669131 1.4827341049 1.5707963268 1.6937793186 
1.8705049266 2.1243706857 2.4613776767 2.8286213739 1.5707963268 1.6588585487 1.7739652728 1.9258976586 2.1243706857 
2.3709992258 2.6469669131 2.9144344902 0.26576171152 0.33975332011 0.45685295248 0.40226393329 0.51573716537 0.6552068806 
0.45538277901 0.56421707518 0.69407236469 0.84594095064 0.50083690068 0.60464862014 0.72561863695 0.86392567495 1.0172219679 
0.54002084522 0.63877777351 0.75168694275 0.87851444325 1.0172219679 1.1636342747 0.57404952988 0.66790778838 0.77356233629 
0.89058134991 1.0172219679 1.1502619915 1.2852923014 0.60381225391 0.69302191562 0.79216440667 0.90072551443 1.0172219679 
1.139116835 1.2630228569 1.3852070904 0.71487100155 0.80816628637 0.80816628637 0.90937090954 0.90937090954 0.90937090954 
1.0172219679 1.0172219679 1.0172219679 1.0172219679 1.1296873865 1.1296873865 1.1296873865 1.1296873865 1.1296873865 
1.24411054 1.24411054 1.24411054 1.24411054 1.24411054 1.24411054 1.3575464161 1.3575464161 1.3575464161 
1.3575464161 1.3575464161 1.3575464161 1.3575464161 1.4671972081 1.4671972081 1.4671972081 1.4671972081 1.4671972081 
1.4671972081 1.4671972081 1.4671972081 1.6743954455 1.6743954455 1.7840462375 1.6743954455 1.7840462375 1.8974821136 
1.6743954455 1.7840462375 1.8974821136 2.0119052671 1.6743954455 1.7840462375 1.8974821136 2.0119052671 2.1243706857 
1.6743954455 1.7840462375 1.8974821136 2.0119052671 2.1243706857 2.232221744 1.6743954455 1.7840462375 1.8974821136 
2.0119052671 2.1243706857 2.232221744 2.3334263672 1.6743954455 1.7840462375 1.8974821136 2.0119052671 2.1243706857 
2.232221744 2.3334263672 2.426721652 1.7563855631 1.8785697967 1.8563003522 2.0024758186 1.9913306621 1.9779583789 
2.1243706857 2.1243706857 2.1243706857 2.1243706857 2.2408671392 2.2510113037 2.2630782103 2.2776669786 2.295651703 
2.3494282469 2.3680303173 2.3899057108 2.4159740166 2.4475202889 2.486385773 2.448570738 2.4736848652 2.5028148801 
2.5369440334 2.5773755784 2.6258554882 2.6847397011 2.5377803997 2.5675431237 2.6015718084 2.6407557529 2.6862098746 
2.7393287203 2.8018393335 2.8758309421 2.718901062 2.8307207459 2.7598010554 2.95115522 2.8800620952 2.8058000847 
3.0774230472 3.00855263 2.9351694502 2.8576792927 3.0774230472 3.1415926536 3.0719036933 2.9967168029 2.91630358 
2.95115522 3.00855263 3.0719036933 3.1415926536 3.0653475414 2.9825888767 2.8307207459 2.8800620952 2.9351694502 
2.9967168029 3.0653475414 3.1415926536 3.0574329311 2.718901062 2.7598010554 2.8058000847 2.8576792927 2.91630358 
2.9825888767 3.0574329311 3.1415926536 2.718901062 2.7598010554 2.8307207459 2.8058000847 2.8800620952 2.95115522 
2.8576792927 2.9351694502 3.00855263 3.0774230472 2.91630358 2.9967168029 3.0719036933 3.1415926536 3.0774230472 
2.9825888767 3.0653475414 3.1415926536 3.0719036933 3.00855263 2.95115522 3.0574329311 3.1415926536 3.0653475414 