# vtk DataFile Version 5.1
vtk output
ASCII
DATASET POLYDATA
POINTS 100 float
-4.16003 4.37036 1.63906 -4.16431 4.36554 1.63344 -4.17811 4.34837 1.62048 
-4.20215 4.31833 1.60153 -4.2374 4.27462 1.57859 -4.28488 4.21634 1.55408 
-4.34537 4.14262 1.53046 -4.41928 4.05275 1.50993 -4.50646 3.94634 1.49415 
-4.60622 3.82336 1.48404 -4.71748 3.68419 1.47972 -4.8389 3.52963 1.48056 
-4.96921 3.36075 1.48528 -5.10745 3.17886 1.49222 -5.25316 2.98532 1.49954 
-5.40649 2.78148 1.50548 -5.56819 2.56853 1.50855 -5.73943 2.34749 1.50768 
-5.92161 2.11913 1.50223 -6.11601 1.8841 1.492 -6.32357 1.64289 1.47715 
-6.54467 1.39597 1.45808 -6.77901 1.14385 1.43533 -7.02568 0.887097 1.40941 
-7.28327 0.626376 1.38079 -7.55015 0.36241 1.34983 -7.82471 0.0959099 1.31675 
-8.10565 -0.172511 1.28164 -8.39213 -0.442424 1.24455 -8.68386 -0.713653 1.20544 
-8.98102 -0.98629 1.16424 -9.2842 -1.26066 1.12085 -9.5941 -1.53723 1.07518 
-9.91133 -1.81648 1.02707 -10.2363 -2.09873 0.976404 -10.5691 -2.38403 0.923026 
-10.9094 -2.67203 0.866841 -11.257 -2.96202 0.807829 -11.6115 -3.25299 0.746093 
-11.973 -3.54386 0.681885 -12.342 -3.8337 0.615605 -12.7196 -4.12213 0.547768 
-13.1077 -4.40955 0.478912 -13.5081 -4.69748 0.409475 -13.9228 -4.98862 0.33965 
-14.3532 -5.28684 0.269233 -14.7997 -5.597 0.197495 -15.2611 -5.92454 0.123121 
-15.7346 -6.27502 0.044224 -16.2155 -6.65349 -0.0415527 -16.6979 -7.06398 -0.136835 
-17.1747 -7.50898 -0.244252 -17.6383 -7.98915 -0.366124 -18.0817 -8.50318 -0.504159 
-18.4991 -9.04792 -0.659194 -18.8862 -9.6187 -0.831028 -19.241 -10.2099 -1.01837 
-19.5637 -10.8153 -1.21895 -19.8565 -11.4291 -1.42967 -20.1231 -12.0461 -1.64701 
-20.3682 -12.6625 -1.86729 -20.5965 -13.2757 -2.08715 -20.8122 -13.8847 -2.30379 
-21.0183 -14.4899 -2.51528 -21.2164 -15.0927 -2.7206 -21.4066 -15.695 -2.91968 
-21.5878 -16.299 -3.11323 -21.7577 -16.9068 -3.30249 -21.914 -17.5198 -3.48894 
-22.0543 -18.1386 -3.67401 -22.1772 -18.7633 -3.8588 -22.2821 -19.3927 -4.04394 
-22.3696 -20.0251 -4.22947 -22.4414 -20.6583 -4.4149 -22.5 -21.2894 -4.59936 
-22.5482 -21.9155 -4.78171 -22.5889 -22.5332 -4.96083 -22.6242 -23.1395 -5.13576 
-22.6559 -23.7312 -5.30585 -22.6848 -24.3053 -5.4708 -22.711 -24.859 -5.63067 
-22.7343 -25.39 -5.78572 -22.7542 -25.8962 -5.93629 -22.7706 -26.3763 -6.08262 
-22.7839 -26.8294 -6.22464 -22.7956 -27.2552 -6.36193 -22.8074 -27.6541 -6.49361 
-22.8221 -28.0266 -6.61842 -22.8423 -28.3737 -6.73488 -22.8707 -28.6962 -6.84139 
-22.9088 -28.9948 -6.93654 -22.9574 -29.2694 -7.01922 -23.0152 -29.5194 -7.08887 
-23.08 -29.7435 -7.14549 -23.1477 -29.9395 -7.18965 -23.2133 -30.105 -7.22242 
-23.2716 -30.2373 -7.24516 -23.3173 -30.3337 -7.25928 -23.3462 -30.392 -7.26606 
-23.3556 -30.411 -7.2664 
LINES 2 100
OFFSETS vtktypeint64
0 100 
CONNECTIVITY vtktypeint64
0 1 2 3 4 5 6 7 8 
9 10 11 12 13 14 15 16 17 
18 19 20 21 22 23 24 25 26 
27 28 29 30 31 32 33 34 35 
36 37 38 39 40 41 42 43 44 
45 46 47 48 49 50 51 52 53 
54 55 56 57 58 59 60 61 62 
63 64 65 66 67 68 69 70 71 
72 73 74 75 76 77 78 79 80 
81 82 83 84 85 86 87 88 89 
90 91 92 93 94 95 96 97 98 
99 
POINT_DATA 100
FIELD FieldData 3
_theta 1 100 double
0 0.031733259127 0.063466518254 0.095199777382 0.12693303651 0.15866629564 0.19039955476 0.22213281389 0.25386607302 
0.28559933214 0.31733259127 0.3490658504 0.38079910953 0.41253236865 0.44426562778 0.47599888691 0.50773214603 0.53946540516 
0.57119866429 0.60293192342 0.63466518254 0.66639844167 0.6981317008 0.72986495992 0.76159821905 0.79333147818 0.82506473731 
0.85679799643 0.88853125556 0.92026451469 0.95199777382 0.98373103294 1.0154642921 1.0471975512 1.0789308103 1.1106640695 
1.1423973286 1.1741305877 1.2058638468 1.237597106 1.2693303651 1.3010636242 1.3327968833 1.3645301425 1.3962634016 
1.4279966607 1.4597299198 1.491463179 1.5231964381 1.5549296972 1.5866629564 1.6183962155 1.6501294746 1.6818627337 
1.7135959929 1.745329252 1.7770625111 1.8087957702 1.8405290294 1.8722622885 1.9039955476 1.9357288068 1.9674620659 
1.999195325 2.0309285841 2.0626618433 2.0943951024 2.1261283615 2.1578616206 2.1895948798 2.2213281389 2.253061398 
2.2847946572 2.3165279163 2.3482611754 2.3799944345 2.4117276937 2.4434609528 2.4751942119 2.506927471 2.5386607302 
2.5703939893 2.6021272484 2.6338605076 2.6655937667 2.6973270258 2.7290602849 2.7607935441 2.7925268032 2.8242600623 
2.8559933214 2.8877265806 2.9194598397 2.9511930988 2.982926358 3.0146596171 3.0463928762 3.0781261353 3.1098593945 
3.1415926536 
_radius 1 100 double
6.3583898428e-15 0.29323503991 0.58501479174 0.87397745665 1.158988823 1.4391874388 1.7139601345 1.982850734 2.245425336 
2.5011333304 2.7492068268 2.988629962 3.2181880831 3.4365838558 3.6425912272 3.8352127523 4.0138098129 4.1781845377 
4.3286028489 4.4657577211 4.5906793793 4.7046046181 4.8088216244 4.9045110029 4.9926079588 5.0737118914 5.1480639183 
5.2155982361 5.2760527467 5.3291054206 5.3744936683 5.4120792964 5.4418397903 5.4637900787 5.4778580623 5.4837461902 
5.4808113303 5.4679917234 5.4438069077 5.4064522724 5.3539986291 5.2846859038 5.1972732321 5.0913858239 4.9677917157 
4.8285522746 4.6770150953 4.51764891 4.3557486229 4.1970557459 4.0473380499 3.9119541004 3.7954127045 3.7009514724 
3.630204693 3.5830615538 3.5577780919 3.5513182736 3.559832358 3.5791631816 3.605284978 3.6346136119 3.6641728093 
3.6916364247 3.7152791495 3.7338659601 3.7465093875 3.7525291277 3.7513540001 3.7425004432 3.7256389285 3.7007260243 
3.6681502464 3.6288278091 3.5841943397 3.5360657667 3.4863763152 3.436833779 3.3885553049 3.3417587879 3.2955835945 
3.2480934365 3.1964717529 3.1373703603 3.0673374742 2.9832396469 2.8825964246 2.7637621301 2.6259225107 2.4689286505 
2.2930488749 2.0987456731 1.8865584296 1.6571155512 1.4112521027 1.1501871666 0.8757065198 0.59029056002 0.29713067068 
5.3074615649e-14 
_area 1 100 double
0 0.24470652837 0.97388363786 2.1729333914 3.818468718 5.8800106366 8.3221624963 11.106361628 14.191494537 
17.533627086 21.086058136 24.800898819 28.63213791 32.538432492 36.483177645 40.431064815 44.343506107 48.176634712 
51.883487392 55.419163936 58.746772043 61.84226761 64.696811793 67.315942914 69.715860001 71.918116345 73.944488131 
75.813442923 77.538649367 79.128835699 80.587652899 81.912518451 83.09261108 84.107294568 84.926135878 85.510447418 
85.815288603 85.79102618 85.384543206 84.541237373 83.20946463 81.348590963 78.940176628 75.999722699 72.585194255 
68.799119671 64.783105843 60.705724239 56.745445052 53.068738555 49.802103146 47.008098224 44.69218583 42.835586927 
41.414147106 40.395461841 39.734803757 39.380097472 39.279576083 39.384272845 39.645440344 40.011610135 40.428826656 
40.844506782 41.212946019 41.499398564 41.680196698 41.738301249 41.656403829 41.41216015 40.98019068 40.341615183 
39.496590724 38.473300963 37.328964772 36.141888281 34.99616286 33.961993844 33.075991611 32.328346869 31.664487204 
31.001395388 30.248809425 29.325873146 28.171333199 26.749164032 25.050473382 23.091122893 20.905281505 18.537781027 
16.03974492 13.469612013 10.896947428 8.4041443566 6.0831411692 4.0280465073 2.3267387893 1.0539612238 0.26652356501 
8.5265128291e-14 
