# vtk DataFile Version 5.1
vtk output
ASCII
DATASET POLYDATA
POINTS 1002 float
-10.9154 0.0742052 -3.45474 11.1619 -1.03129 -2.95079 -10.0538 0.891838 3.76283 
10.3018 -1.06172 2.08928 -2.73228 2.3119 -1.96504 -2.08767 1.89987 1.42142 
-1.09441 -6.41543 -1.96313 -1.30417 -6.9862 2.07514 19.4174 9.04557 0.967725 
-16.0054 7.99815 0.316571 18.1027 -0.952489 0.139336 -15.5015 -4.394 -0.0672617 
-9.64356 -0.255138 -3.44466 -8.13145 -0.621009 -3.38276 -6.35367 -1.00769 -3.16451 
-4.18398 -1.51957 -2.88677 -1.43712 -2.17741 -2.83459 1.67805 -2.63104 -3.01563 
4.60571 -2.56373 -3.16378 7.10612 -2.12938 -3.17352 9.27515 -1.59725 -3.09104 
-10.6765 0.612417 -3.52398 -10.3163 1.17634 -3.52936 -9.74698 1.76956 -3.44549 
-9.00393 2.33055 -3.36023 -8.26379 2.81577 -3.3144 -7.49535 3.27051 -3.17672 
-6.47269 3.58725 -2.8833 -5.21822 3.49796 -2.536 -3.94296 2.98047 -2.22266 
-10.3468 -0.667629 -3.34963 -9.67251 -1.45072 -3.21183 -8.8445 -2.23934 -3.0444 
-7.81788 -3.01115 -2.84107 -6.65763 -3.75581 -2.61342 -5.46861 -4.44146 -2.42214 
-4.28559 -5.04127 -2.29806 -3.13778 -5.5659 -2.19182 -2.06914 -6.02736 -2.07304 
-11.973 0.736353 -3.51287 -13.0252 1.46586 -3.52812 -14.017 2.29996 -3.40217 
-14.9308 3.31039 -3.10909 -15.7224 4.43057 -2.74926 -16.2638 5.45832 -2.3252 
-16.493 6.3131 -1.7346 -16.4922 7.04171 -1.0189 -16.3294 7.6259 -0.314469 
-11.7724 -0.119924 -3.41918 -12.6298 -0.403496 -3.36214 -13.4233 -0.774098 -3.22414 
-14.118 -1.27689 -3.01062 -14.7006 -1.87341 -2.71595 -15.1558 -2.41809 -2.2797 
-15.4981 -2.93255 -1.75719 -15.6916 -3.51677 -1.22946 -15.6752 -4.05893 -0.667212 
10.6432 -0.673498 -2.93173 9.91666 -0.383494 -2.96758 8.95339 -0.186676 -3.02157 
7.75816 -0.0314884 -2.99814 6.40088 0.0637398 -2.85849 4.83929 0.0536348 -2.6386 
2.90786 0.118755 -2.39658 0.729979 0.518933 -2.19671 -1.25127 1.29716 -2.06425 
10.4173 -1.77515 -3.07906 9.47413 -2.51308 -3.1578 8.32931 -3.25735 -3.16765 
7.02031 -4.00216 -3.1167 5.60391 -4.63182 -2.96796 4.10011 -5.11295 -2.73652 
2.56745 -5.53697 -2.53498 1.15306 -5.9061 -2.37463 -0.0572947 -6.18647 -2.18261 
12.6662 -0.109575 -2.74366 14.1772 1.00652 -2.53237 15.6191 2.27669 -2.35774 
17.0081 3.6776 -2.08694 18.3934 5.13527 -1.55385 19.5291 6.49972 -0.955652 
20.0409 7.70254 -0.561138 19.9977 8.67029 -0.197568 19.745 9.16843 0.356361 
12.4822 -0.869455 -2.86146 13.7293 -0.656294 -2.72204 14.9048 -0.433886 -2.52128 
15.9955 -0.275939 -2.27355 16.8782 -0.200191 -1.946 17.5287 -0.17201 -1.53188 
18.0603 -0.197256 -1.11787 18.4221 -0.323148 -0.722098 18.4419 -0.578675 -0.293706 
-8.88449 0.500065 3.76593 -7.49965 0.0236293 3.76368 -5.8433 -0.611165 3.67081 
-3.83282 -1.43072 3.32713 -1.45719 -2.20247 2.85717 1.13613 -2.56296 2.52217 
3.73162 -2.45922 2.2646 6.16932 -2.10943 2.02192 8.3702 -1.63879 1.95422 
-9.6638 1.42981 3.69317 -9.16925 1.98019 3.63074 -8.54799 2.45811 3.5158 
-7.79728 2.81544 3.34355 -6.97226 3.03652 3.11211 -6.09345 3.08653 2.79367 
-5.12303 2.94801 2.43751 -4.09279 2.65743 2.10144 -3.0752 2.2834 1.76724 
-9.66529 0.141231 3.88671 -9.08684 -0.670606 4.0261 -8.24863 -1.62487 4.10676 
-7.21257 -2.7319 4.06279 -6.1556 -3.81629 3.86142 -5.13772 -4.7299 3.52509 
-4.10504 -5.50783 3.14904 -3.09395 -6.15957 2.79595 -2.16718 -6.63963 2.44193 
-10.9237 1.6151 3.6666 -11.8003 2.40447 3.50228 -12.6761 3.21354 3.25366 
-13.5224 4.06713 2.94946 -14.2808 4.96861 2.62724 -14.9239 5.80008 2.30319 
-15.4626 6.52742 1.94524 -15.8598 7.20572 1.47825 -16.0444 7.74409 0.902099 
-10.9542 0.772207 3.78894 -11.9236 0.577603 3.71159 -12.9816 0.249546 3.46558 
-14.0914 -0.291361 3.08898 -15.1166 -1.06031 2.61499 -15.836 -1.91048 2.05147 
-16.1132 -2.68384 1.49095 -16.0489 -3.37731 0.980087 -15.8213 -3.98241 0.460554 
9.61261 -0.878891 1.99515 8.76098 -0.770477 1.83559 7.72359 -0.665213 1.68181 
6.47268 -0.49978 1.62165 5.05584 -0.329171 1.61578 3.55625 -0.175337 1.59022 
2.01951 0.0801706 1.58153 0.508596 0.522282 1.58667 -0.882656 1.13976 1.53046 
9.71857 -1.72438 2.0059 8.94054 -2.47747 1.90089 7.95009 -3.25812 1.84955 
6.74696 -3.99597 1.88449 5.36237 -4.65751 1.94134 3.91094 -5.27189 1.97961 
2.5159 -5.84809 2.04307 1.19003 -6.3265 2.11812 -0.0963252 -6.68893 2.13256 
11.748 -0.217634 2.23648 13.2191 0.796974 2.32882 14.6441 1.97281 2.42089 
15.964 3.30757 2.63341 17.1317 4.68965 2.78857 18.0969 5.89645 2.63272 
18.8245 6.93513 2.32585 19.276 7.94597 2.01717 19.449 8.75232 1.56793 
11.8002 -0.791211 2.24138 13.2608 -0.512235 2.33911 14.6059 -0.315595 2.33928 
15.8082 -0.2295 2.27134 16.8076 -0.177414 2.1342 17.5105 -0.17552 1.87913 
17.9501 -0.318723 1.53549 18.2326 -0.537509 1.14544 18.3232 -0.727998 0.678966 
-2.72471 2.57793 -1.73255 -2.64398 2.8158 -1.44914 -2.49815 2.96467 -1.13555 
-2.37293 3.05337 -0.784719 -2.32549 3.13867 -0.369731 -2.29337 3.11071 0.0823999 
-2.24234 2.87252 0.491444 -2.20319 2.5271 0.82706 -2.1588 2.19461 1.12952 
-0.457498 1.21765 -1.84691 2.42959 0.95735 -1.82292 5.56397 1.57507 -1.7745 
8.48383 2.42989 -1.57237 11.0631 3.23182 -1.25744 13.4807 4.29095 -0.90141 
15.741 5.68137 -0.473067 17.5457 7.1342 0.0187289 18.7196 8.34089 0.508663 
-4.47588 3.9557 -2.01876 -5.89095 5.4892 -2.00423 -7.2963 6.43769 -1.82142 
-8.82346 6.99772 -1.52983 -10.2944 7.49185 -1.23065 -11.6696 7.82555 -0.912185 
-13.015 8.00457 -0.577886 -14.245 8.18718 -0.276871 -15.2544 8.25005 0.0110903 
-0.218867 1.14484 1.12912 2.0618 0.852241 0.857129 4.62569 1.206 0.730173 
7.24842 1.94825 0.753194 9.7654 2.67207 0.771068 12.2191 3.49276 0.795794 
14.6858 4.82128 0.957758 16.9029 6.5405 1.14843 18.4806 8.07663 1.16477 
-3.76233 3.14219 1.55335 -5.34976 4.63941 1.792 -6.86632 6.09589 2.10821 
-8.35621 7.23354 2.29804 -9.79825 7.96124 2.2096 -11.1497 8.39273 1.92186 
-12.4833 8.62784 1.55694 -13.8407 8.64673 1.15086 -15.0675 8.42671 0.72826 
-1.12757 -6.77372 -1.75711 -1.16895 -7.13714 -1.52106 -1.22879 -7.5147 -1.21152 
-1.35227 -7.89086 -0.757381 -1.51511 -8.15994 -0.145119 -1.60604 -8.23016 0.50634 
-1.60817 -8.09235 1.04242 -1.57057 -7.77747 1.44133 -1.47183 -7.37441 1.77619 
0.549685 -6.61067 -2.01151 2.42716 -6.7353 -2.08015 4.49597 -6.71184 -2.10641 
6.65221 -6.54139 -2.02534 8.71907 -6.33077 -1.88478 10.6279 -5.93681 -1.73224 
12.6012 -4.96203 -1.45605 14.7373 -3.46868 -0.97496 16.6903 -2.0173 -0.39533 
-2.69391 -6.42089 -1.81134 -4.3967 -6.42724 -1.66812 -6.11318 -6.39891 -1.51932 
-7.7383 -6.2894 -1.31039 -9.3008 -6.08241 -1.02265 -10.8429 -5.81381 -0.777962 
-12.2736 -5.5639 -0.653523 -13.5222 -5.32884 -0.526247 -14.6008 -4.97113 -0.308765 
0.379044 -7.08995 1.74048 2.29347 -7.09027 1.37857 4.40541 -6.94574 1.03548 
6.69037 -6.6886 0.763025 9.02022 -6.34253 0.609922 11.1941 -5.75586 0.566624 
13.1742 -4.7313 0.518239 15.0433 -3.37533 0.395369 16.7399 -2.04158 0.254036 
-2.99721 -7.0714 2.21885 -4.66631 -7.17765 2.36835 -6.28419 -7.27699 2.46353 
-7.95175 -7.23679 2.37792 -9.66309 -6.94075 2.10401 -11.2583 -6.4168 1.76367 
-12.6462 -5.8566 1.38134 -13.8038 -5.40295 0.916613 -14.7349 -4.96163 0.412294 
20.1783 9.45105 1.03388 21.0535 9.21981 1.06722 21.9881 8.30538 1.11605 
22.5098 6.98474 1.15227 22.3602 5.64441 1.08463 21.8234 4.29124 0.904481 
21.1705 2.80425 0.713051 20.3881 1.37666 0.553059 19.3816 0.166772 0.368151 
-16.8016 7.24011 0.241619 -17.4215 6.14773 0.105066 -17.839 4.85258 -0.0976531 
-18.0821 3.47019 -0.275346 -18.2242 2.0332 -0.396443 -18.2429 0.579747 -0.529769 
-17.9664 -0.841101 -0.592821 -17.3195 -2.20268 -0.466853 -16.4395 -3.42712 -0.246095 
-9.26494 0.221595 -3.51233 -8.71147 0.734408 -3.45237 -7.57345 -0.192471 -3.39279 
-7.9587 1.27579 -3.30462 -6.83501 0.267195 -3.24672 -5.59292 -0.663836 -3.09551 
-7.17438 1.73852 -3.2427 -5.97112 0.678001 -3.09572 -4.63942 -0.373773 -2.95287 
-3.09143 -1.35463 -2.83542 -6.42351 2.06059 -3.20447 -5.0495 0.875556 -3.06126 
-3.4884 -0.226226 -2.88552 -1.72683 -1.24926 -2.79411 0.0862363 -2.067 -2.85906 
-5.43145 2.23683 -2.96705 -3.87907 0.851009 -2.9327 -2.04775 -0.269532 -2.84834 
-0.104095 -1.13376 -2.80657 1.80268 -1.8042 -2.8782 3.40216 -2.25829 -3.03795 
-4.08279 2.14382 -2.59236 -2.34266 0.733083 -2.6229 -0.294257 -0.330664 -2.68532 
1.69653 -0.93815 -2.79655 3.52092 -1.31813 -2.92959 5.0674 -1.61314 -3.05074 
6.23361 -1.86844 -3.13344 -2.62416 1.75088 -2.27753 -0.72029 0.594428 -2.34814 
1.4542 -0.199459 -2.49697 3.42598 -0.541042 -2.72132 5.08085 -0.677773 -2.94532 
6.51287 -0.824596 -3.0783 7.68724 -1.01694 -3.10065 8.58696 -1.27789 -3.08378 
-11.7486 1.39648 -3.55149 -12.7796 2.26271 -3.51215 -11.3898 2.10348 -3.52406 
-13.7455 3.22838 -3.29164 -12.391 3.11428 -3.42309 -10.8021 2.80647 -3.4358 
-14.602 4.31499 -2.91867 -13.2631 4.16623 -3.12722 -11.7356 3.90518 -3.27178 
-10.0164 3.4037 -3.32316 -15.2129 5.4126 -2.5096 -13.9112 5.23587 -2.72076 
-12.4248 4.98881 -2.90177 -10.8249 4.51408 -3.03544 -9.14622 3.91598 -3.15434 
-15.5085 6.36124 -1.9971 -14.2722 6.23022 -2.24801 -12.8361 6.0226 -2.44215 
-11.3281 5.58864 -2.56995 -9.72722 4.9833 -2.7387 -8.11412 4.4182 -2.90669 
-15.5827 7.13696 -1.32627 -14.4193 7.03643 -1.61724 -13.0472 6.89815 -1.88166 
-11.6031 6.57136 -2.06759 -10.0603 5.96856 -2.247 -8.42675 5.40186 -2.48795 
-6.87465 4.72445 -2.6258 -15.5044 7.77721 -0.624898 -14.4173 7.66909 -0.911273 
-13.1113 7.52702 -1.2119 -11.7166 7.32262 -1.50373 -10.2556 6.83759 -1.75622 
-8.64839 6.25713 -2.02816 -7.0777 5.64783 -2.26958 -5.62145 4.56279 -2.32689 
-14.1353 8.58875 0.403716 -12.7551 8.75154 0.782138 -12.9568 8.46893 0.0636634 
-11.3317 8.72868 1.16143 -11.4819 8.66121 0.37246 -11.6071 8.27221 -0.303299 
-9.95406 8.48323 1.55873 -10.0254 8.69759 0.743505 -10.0868 8.46519 -0.0222011 
-10.2004 8.00214 -0.662474 -8.51978 7.9045 1.85769 -8.58397 8.38522 1.15623 
-8.59558 8.43597 0.348931 -8.65035 8.08142 -0.371818 -8.76744 7.57672 -0.988823 
-7.02376 6.85003 1.86493 -7.09106 7.50564 1.38773 -7.11241 7.86062 0.671965 
-7.13361 7.80221 -0.0833043 -7.20738 7.48651 -0.738666 -7.28197 7.02463 -1.31892 
-5.50673 5.33618 1.60553 -5.58003 6.01745 1.30852 -5.61651 6.53105 0.775844 
[...]
POINT_DATA 1002
FIELD FieldData 4
_paraPhi 1 1002 double
6.2831853072 3.1415926536 6.2831853072 3.1415926536 4.7123889804 4.7123889804 1.5707963268 1.5707963268 3.6951670125 
5.7296109483 2.5880182947 0.5535743589 6.2831853072 6.2831853072 6.2831853072 6.2831853072 3.1415926536 3.1415926536 
3.1415926536 3.1415926536 3.1415926536 6.1053039672 5.898798347 5.6768734901 5.4599499503 5.2659633393 5.1032165617 
4.9713148346 4.8656852733 4.7809517865 0.17788134 0.38438696014 0.60631181711 0.82323535693 1.0172219679 1.1799687454 
1.3118704726 1.4175000338 1.5022335207 6.1892828907 6.1070320098 6.035312792 5.9728339911 5.9183214791 5.8706119594 
5.8286879411 5.7916808611 5.7588591896 0.093902416448 0.17615329733 0.2478725152 0.31035131605 0.36486382811 0.41257334776 
0.45449736604 0.4915044461 0.52432611754 3.3194739936 3.5259796137 3.7479044707 3.9648280105 4.1588146215 4.321561399 
4.4534631262 4.5590926874 4.6438261743 2.9637113136 2.7572056934 2.5352808365 2.3183572967 2.1243706857 1.9616239082 
1.829722181 1.7240926197 1.6393591329 3.23549507 3.3177459509 3.3894651688 3.4519439696 3.5064564817 3.5541660013 
3.5960900196 3.6330970997 3.6659187711 3.0476902371 2.9654393563 2.8937201384 2.8312413375 2.7767288255 2.7290193058 
2.6870952876 2.6500882075 2.617266536 6.2831853072 6.2831853072 6.2831853072 6.2831853072 3.1415926536 3.1415926536 
3.1415926536 3.1415926536 3.1415926536 6.1053039672 5.898798347 5.6768734901 5.4599499503 5.2659633393 5.1032165617 
4.9713148346 4.8656852733 4.7809517865 0.17788134 0.38438696014 0.60631181711 0.82323535693 1.0172219679 1.1799687454 
1.3118704726 1.4175000338 1.5022335207 6.1892828907 6.1070320098 6.035312792 5.9728339911 5.9183214791 5.8706119594 
5.8286879411 5.7916808611 5.7588591896 0.093902416448 0.17615329733 0.2478725152 0.31035131605 0.36486382811 0.41257334776 
0.45449736604 0.4915044461 0.52432611754 3.3194739936 3.5259796137 3.7479044707 3.9648280105 4.1588146215 4.321561399 
4.4534631262 4.5590926874 4.6438261743 2.9637113136 2.7572056934 2.5352808365 2.3183572967 2.1243706857 1.9616239082 
1.829722181 1.7240926197 1.6393591329 3.23549507 3.3177459509 3.3894651688 3.4519439696 3.5064564817 3.5541660013 
3.5960900196 3.6330970997 3.6659187711 3.0476902371 2.9654393563 2.8937201384 2.8312413375 2.7767288255 2.7290193058 
2.6870952876 2.6500882075 2.617266536 4.7123889804 4.7123889804 4.7123889804 4.7123889804 4.7123889804 4.7123889804 
4.7123889804 4.7123889804 4.7123889804 4.6087898617 4.4991390697 4.3857031936 4.2712800401 4.1588146215 4.0509635631 
3.94975894 3.8564636551 3.7716124825 4.8159880991 4.9256388911 5.0390747672 5.1534979207 5.2659633393 5.3738143976 
5.4750190208 5.5683143056 5.6531654782 4.6087898617 4.4991390697 4.3857031936 4.2712800401 4.1588146215 4.0509635631 
3.94975894 3.8564636551 3.7716124825 4.8159880991 4.9256388911 5.0390747672 5.1534979207 5.2659633393 5.3738143976 
5.4750190208 5.5683143056 5.6531654782 1.5707963268 1.5707963268 1.5707963268 1.5707963268 1.5707963268 1.5707963268 
1.5707963268 1.5707963268 1.5707963268 1.6743954455 1.7840462375 1.8974821136 2.0119052671 2.1243706857 2.232221744 
2.3334263672 2.426721652 2.5115728246 1.4671972081 1.3575464161 1.24411054 1.1296873865 1.0172219679 0.90937090954 
0.80816628637 0.71487100155 0.63001982895 1.6743954455 1.7840462375 1.8974821136 2.0119052671 2.1243706857 2.232221744 
2.3334263672 2.426721652 2.5115728246 1.4671972081 1.3575464161 1.24411054 1.1296873865 1.0172219679 0.90937090954 
0.80816628637 0.71487100155 0.63001982895 3.6007720849 3.4966939854 3.3839471039 3.2645756454 3.1415926536 3.0186096618 
2.8992382033 2.7864913217 2.6824132222 5.8240058758 5.9280839753 6.0408308569 6.1602023154 6.2831853072 0.12298299178 
0.2423544503 0.35510133185 0.45917943135 6.0560271438 5.7885595667 5.9702140275 5.5125918794 5.6029703303 5.7885595667 
5.2659633393 5.2659633393 5.2659633393 5.2659633393 5.0674903122 5.0120975802 4.9155579264 4.7123889804 4.1588146215 
4.9155579264 4.8353719722 4.7123889804 4.5092200343 4.1588146215 3.6362183941 4.8004512023 4.7123889804 4.5894059886 
4.4126803806 4.1588146215 3.8218076305 3.4545639333 4.7123889804 4.6243267584 4.5092200343 4.3572876485 4.1588146215 
3.9121860814 3.6362183941 3.368750817 6.0174235957 5.9434319871 5.8263323547 5.8809213739 5.7674481418 5.6279784266 
5.8278025282 5.718968232 5.5891129425 5.4372443565 5.7823484065 5.678536687 5.5575666702 5.4192596322 5.2659633393 
5.743164462 5.6444075337 5.5314983644 5.4046708639 5.2659633393 5.1195510325 5.7091357773 5.6152775188 5.5096229709 
5.3926039573 5.2659633393 5.1329233157 4.9978930058 5.6793730533 5.5901633916 5.4910209005 5.3824597928 5.2659633393 
5.1440684722 5.0201624502 4.8979782167 5.5683143056 5.4750190208 5.4750190208 5.3738143976 5.3738143976 5.3738143976 
5.2659633393 5.2659633393 5.2659633393 5.2659633393 5.1534979207 5.1534979207 5.1534979207 5.1534979207 5.1534979207 
5.0390747672 5.0390747672 5.0390747672 5.0390747672 5.0390747672 5.0390747672 4.9256388911 4.9256388911 4.9256388911 
4.9256388911 4.9256388911 4.9256388911 4.9256388911 4.8159880991 4.8159880991 4.8159880991 4.8159880991 4.8159880991 
4.8159880991 4.8159880991 4.8159880991 4.6087898617 4.6087898617 4.4991390697 4.6087898617 4.4991390697 4.3857031936 
4.6087898617 4.4991390697 4.3857031936 4.2712800401 4.6087898617 4.4991390697 4.3857031936 4.2712800401 4.1588146215 
4.6087898617 4.4991390697 4.3857031936 4.2712800401 4.1588146215 4.0509635631 4.6087898617 4.4991390697 4.3857031936 
4.2712800401 4.1588146215 4.0509635631 3.94975894 4.6087898617 4.4991390697 4.3857031936 4.2712800401 4.1588146215 
4.0509635631 3.94975894 3.8564636551 4.526799744 4.4046155105 4.426884955 4.2807094886 4.2918546451 4.3052269283 
4.1588146215 4.1588146215 4.1588146215 4.1588146215 4.042318168 4.0321740035 4.0201070968 4.0055183285 3.9875336042 
3.9337570603 3.9151549899 3.8932795963 3.8672112905 3.8356650183 3.7967995342 3.8346145692 3.809500442 3.7803704271 
3.7462412737 3.7058097288 3.657329819 3.5984456061 3.7454049075 3.7156421835 3.6816134988 3.6424295543 3.5969754326 
3.5438565869 3.4813459737 3.4073543651 3.5642842451 3.4524645613 3.5233842518 3.3320300872 3.403123212 3.4773852225 
3.20576226 3.2746326772 3.348015857 3.4255060145 3.0774230472 3.1415926536 3.2112816139 3.2864685043 3.3668817272 
2.95115522 3.00855263 3.0719036933 3.1415926536 3.2178377658 3.3005964304 2.8307207459 2.8800620952 2.9351694502 
2.9967168029 3.0653475414 3.1415926536 3.225752376 2.718901062 2.7598010554 2.8058000847 2.8576792927 2.91630358 
2.9825888767 3.0574329311 3.1415926536 3.5642842451 3.5233842518 3.4524645613 3.4773852225 3.403123212 3.3320300872 
3.4255060145 3.348015857 3.2746326772 3.20576226 3.3668817272 3.2864685043 3.2112816139 3.1415926536 3.0774230472 
3.3005964304 3.2178377658 3.1415926536 3.0719036933 3.00855263 2.95115522 3.225752376 3.1415926536 3.0653475414 
2.9967168029 2.9351694502 2.8800620952 2.8307207459 3.1415926536 3.0574329311 2.9825888767 2.91630358 2.8576792927 
2.8058000847 2.7598010554 2.718901062 4.526799744 4.426884955 4.4046155105 4.3052269283 4.2918546451 4.2807094886 
4.1588146215 4.1588146215 4.1588146215 4.1588146215 3.9875336042 4.0055183285 4.0201070968 4.0321740035 4.042318168 
3.7967995342 3.8356650183 3.8672112905 3.8932795963 3.9151549899 3.9337570603 3.5984456061 3.657329819 3.7058097288 
3.7462412737 3.7803704271 3.809500442 3.8346145692 3.4073543651 3.4813459737 3.5438565869 3.5969754326 3.6424295543 
3.6816134988 3.7156421835 3.7454049075 4.7123889804 4.8004512023 4.6243267584 4.9155579264 4.7123889804 4.5092200343 
5.0674903122 4.8353719722 4.5894059886 4.3572876485 5.2659633393 5.0120975802 4.7123889804 4.4126803806 4.1588146215 
5.5125918794 5.2659633393 4.9155579264 4.5092200343 4.1588146215 3.9121860814 5.7885595667 5.6029703303 5.2659633393 
4.7123889804 4.1588146215 3.8218076305 3.6362183941 6.0560271438 5.9702140275 5.7885595667 5.2659633393 4.1588146215 
3.6362183941 3.4545639333 3.368750817 0.22715816343 0.49462574053 0.3129712797 0.77059342779 0.68021497688 0.49462574053 
1.0172219679 1.0172219679 1.0172219679 1.0172219679 1.2156949949 1.271087727 1.3676273807 1.5707963268 2.1243706857 
1.3676273807 1.447813335 1.5707963268 1.7739652728 2.1243706857 2.6469669131 1.4827341049 1.5707963268 1.6937793186 
1.8705049266 2.1243706857 2.4613776767 2.8286213739 1.5707963268 1.6588585487 1.7739652728 1.9258976586 2.1243706857 
2.3709992258 2.6469669131 2.9144344902 1.7563855631 1.8785697967 1.8563003522 2.0024758186 1.9913306621 1.9779583789 
2.1243706857 2.1243706857 2.1243706857 2.1243706857 2.2408671392 2.2510113037 2.2630782103 2.2776669786 2.295651703 
2.3494282469 2.3680303173 2.3899057108 2.4159740166 2.4475202889 2.486385773 2.448570738 2.4736848652 2.5028148801 
2.5369440334 2.5773755784 2.6258554882 2.6847397011 2.5377803997 2.5675431237 2.6015718084 2.6407557529 2.6862098746 
2.7393287203 2.8018393335 2.8758309421 1.6743954455 1.6743954455 1.7840462375 1.6743954455 1.7840462375 1.8974821136 
1.6743954455 1.7840462375 1.8974821136 2.0119052671 1.6743954455 1.7840462375 1.8974821136 2.0119052671 2.1243706857 
1.6743954455 1.7840462375 1.8974821136 2.0119052671 2.1243706857 2.232221744 1.6743954455 1.7840462375 1.8974821136 
2.0119052671 2.1243706857 2.232221744 2.3334263672 1.6743954455 1.7840462375 1.8974821136 2.0119052671 2.1243706857 
2.232221744 2.3334263672 2.426721652 1.4671972081 1.3575464161 1.4671972081 1.24411054 1.3575464161 1.4671972081 
1.1296873865 1.24411054 1.3575464161 1.4671972081 1.0172219679 1.1296873865 1.24411054 1.3575464161 1.4671972081 
0.90937090954 1.0172219679 1.1296873865 1.24411054 1.3575464161 1.4671972081 0.80816628637 0.90937090954 1.0172219679 
1.1296873865 1.24411054 1.3575464161 1.4671972081 0.71487100155 0.80816628637 0.90937090954 1.0172219679 1.1296873865 
1.24411054 1.3575464161 1.4671972081 0.60381225391 0.57404952988 0.69302191562 0.54002084522 0.66790778838 0.79216440667 
0.50083690068 0.63877777351 0.77356233629 0.90072551443 0.45538277901 0.60464862014 0.75168694275 0.89058134991 1.0172219679 
0.40226393329 0.56421707518 0.72561863695 0.87851444325 1.0172219679 1.139116835 0.33975332011 0.51573716537 0.69407236469 
0.86392567495 1.0172219679 1.1502619915 1.2630228569 0.26576171152 0.45685295248 0.6552068806 0.84594095064 1.0172219679 
1.1636342747 1.2852923014 1.3852070904 0.22715816343 0.3129712797 0.49462574053 0.49462574053 0.68021497688 0.77059342779 
1.0172219679 1.0172219679 1.0172219679 1.0172219679 2.1243706857 1.5707963268 1.3676273807 1.271087727 1.2156949949 
2.6469669131 2.1243706857 1.7739652728 1.5707963268 1.447813335 1.3676273807 2.8286213739 2.4613776767 2.1243706857 
1.8705049266 1.6937793186 1.5707963268 1.4827341049 2.9144344902 2.6469669131 2.3709992258 2.1243706857 1.9258976586 
1.7739652728 1.6588585487 1.5707963268 1.7563855631 1.8563003522 1.8785697967 1.9779583789 1.9913306621 2.0024758186 
2.1243706857 2.1243706857 2.1243706857 2.1243706857 2.295651703 2.2776669786 2.2630782103 2.2510113037 2.2408671392 
2.486385773 2.4475202889 2.4159740166 2.3899057108 2.3680303173 2.3494282469 2.6847397011 2.6258554882 2.5773755784 
2.5369440334 2.5028148801 2.4736848652 2.448570738 2.8758309421 2.8018393335 2.7393287203 2.6862098746 2.6407557529 
2.6015718084 2.5675431237 2.5377803997 5.8604937156 5.901393709 5.9723133995 5.9473927383 6.0216547488 6.0927478736 
5.9992719463 6.0767621038 6.1501452836 6.2190157008 6.0578962336 6.1383094565 6.2134963469 0 0.064169606361 
6.1241815303 6.206940195 6.2831853072 0.069688960264 0.13304002361 0.19043743361 6.1990255847 0 0.07624511221 
0.14487585072 0.20642320337 0.26153055843 0.3108719077 0 0.084159722458 0.15900377685 0.22528907359 0.28391336087 
0.3357925689 0.38179159818 0.42269159155 5.8604937156 5.9723133995 5.901393709 6.0927478736 6.0216547488 5.9473927383 
6.2190157008 6.1501452836 6.0767621038 5.9992719463 0.064169606361 0 6.2134963469 6.1383094565 6.0578962336 
0.19043743361 0.13304002361 0.069688960264 6.2831853072 6.206940195 6.1241815303 0.3108719077 0.26153055843 0.20642320337 
0.14487585072 0.07624511221 6.2831853072 6.1990255847 0.42269159155 0.38179159818 0.3357925689 0.28391336087 0.22528907359 
0.15900377685 0.084159722458 0 5.6793730533 5.7091357773 5.5901633916 5.743164462 5.6152775188 5.4910209005 
5.7823484065 5.6444075337 5.5096229709 5.3824597928 5.8278025282 5.678536687 5.5314983644 5.3926039573 5.2659633393 
5.8809213739 5.718968232 5.5575666702 5.4046708639 5.2659633393 5.1440684722 5.9434319871 5.7674481418 5.5891129425 
5.4192596322 5.2659633393 5.1329233157 5.0201624502 6.0174235957 5.8263323547 5.6279784266 5.4372443565 5.2659633393 
5.1195510325 4.9978930058 4.8979782167 1.3852070904 1.2852923014 1.2630228569 1.1636342747 1.1502619915 1.139116835 
1.0172219679 1.0172219679 1.0172219679 1.0172219679 0.84594095064 0.86392567495 0.87851444325 0.89058134991 0.90072551443 
0.6552068806 0.69407236469 0.72561863695 0.75168694275 0.77356233629 0.79216440667 0.45685295248 0.51573716537 0.56421707518 
0.60464862014 0.63877777351 0.66790778838 0.69302191562 0.26576171152 0.33975332011 0.40226393329 0.45538277901 0.50083690068 
0.54002084522 0.57404952988 0.60381225391 
_paraPhiHalf 1 1002 double
0 3.1415926536 0 3.1415926536 1.5707963268 1.5707963268 1.5707963268 1.5707963268 2.5880182947 
0.5535743589 2.5880182947 0.5535743589 0 0 0 0 3.1415926536 3.1415926536 
3.1415926536 3.1415926536 3.1415926536 0.17788134 0.38438696014 0.60631181711 0.82323535693 1.0172219679 1.1799687454 
1.3118704726 1.4175000338 1.5022335207 0.17788134 0.38438696014 0.60631181711 0.82323535693 1.0172219679 1.1799687454 
1.3118704726 1.4175000338 1.5022335207 0.093902416448 0.17615329733 0.2478725152 0.31035131605 0.36486382811 0.41257334776 
0.45449736604 0.4915044461 0.52432611754 0.093902416448 0.17615329733 0.2478725152 0.31035131605 0.36486382811 0.41257334776 
0.45449736604 0.4915044461 0.52432611754 2.9637113136 2.7572056934 2.5352808365 2.3183572967 2.1243706857 1.9616239082 
1.829722181 1.7240926197 1.6393591329 2.9637113136 2.7572056934 2.5352808365 2.3183572967 2.1243706857 1.9616239082 
1.829722181 1.7240926197 1.6393591329 3.0476902371 2.9654393563 2.8937201384 2.8312413375 2.7767288255 2.7290193058 
2.6870952876 2.6500882075 2.617266536 3.0476902371 2.9654393563 2.8937201384 2.8312413375 2.7767288255 2.7290193058 
2.6870952876 2.6500882075 2.617266536 0 0 0 0 3.1415926536 3.1415926536 
3.1415926536 3.1415926536 3.1415926536 0.17788134 0.38438696014 0.60631181711 0.82323535693 1.0172219679 1.1799687454 
1.3118704726 1.4175000338 1.5022335207 0.17788134 0.38438696014 0.60631181711 0.82323535693 1.0172219679 1.1799687454 
1.3118704726 1.4175000338 1.5022335207 0.093902416448 0.17615329733 0.2478725152 0.31035131605 0.36486382811 0.41257334776 
0.45449736604 0.4915044461 0.52432611754 0.093902416448 0.17615329733 0.2478725152 0.31035131605 0.36486382811 0.41257334776 
0.45449736604 0.4915044461 0.52432611754 2.9637113136 2.7572056934 2.5352808365 2.3183572967 2.1243706857 1.9616239082 
1.829722181 1.7240926197 1.6393591329 2.9637113136 2.7572056934 2.5352808365 2.3183572967 2.1243706857 1.9616239082 
1.829722181 1.7240926197 1.6393591329 3.0476902371 2.9654393563 2.8937201384 2.8312413375 2.7767288255 2.7290193058 
2.6870952876 2.6500882075 2.617266536 3.0476902371 2.9654393563 2.8937201384 2.8312413375 2.7767288255 2.7290193058 
2.6870952876 2.6500882075 2.617266536 1.5707963268 1.5707963268 1.5707963268 1.5707963268 1.5707963268 1.5707963268 
1.5707963268 1.5707963268 1.5707963268 1.6743954455 1.7840462375 1.8974821136 2.0119052671 2.1243706857 2.232221744 
2.3334263672 2.426721652 2.5115728246 1.4671972081 1.3575464161 1.24411054 1.1296873865 1.0172219679 0.90937090954 
0.80816628637 0.71487100155 0.63001982895 1.6743954455 1.7840462375 1.8974821136 2.0119052671 2.1243706857 2.232221744 
2.3334263672 2.426721652 2.5115728246 1.4671972081 1.3575464161 1.24411054 1.1296873865 1.0172219679 0.90937090954 
0.80816628637 0.71487100155 0.63001982895 1.5707963268 1.5707963268 1.5707963268 1.5707963268 1.5707963268 1.5707963268 
1.5707963268 1.5707963268 1.5707963268 1.6743954455 1.7840462375 1.8974821136 2.0119052671 2.1243706857 2.232221744 
2.3334263672 2.426721652 2.5115728246 1.4671972081 1.3575464161 1.24411054 1.1296873865 1.0172219679 0.90937090954 
0.80816628637 0.71487100155 0.63001982895 1.6743954455 1.7840462375 1.8974821136 2.0119052671 2.1243706857 2.232221744 
2.3334263672 2.426721652 2.5115728246 1.4671972081 1.3575464161 1.24411054 1.1296873865 1.0172219679 0.90937090954 
0.80816628637 0.71487100155 0.63001982895 2.6824132222 2.7864913217 2.8992382033 3.0186096618 3.1415926536 3.0186096618 
2.8992382033 2.7864913217 2.6824132222 0.45917943135 0.35510133185 0.2423544503 0.12298299178 0 0.12298299178 
0.2423544503 0.35510133185 0.45917943135 0.22715816343 0.49462574053 0.3129712797 0.77059342779 0.68021497688 0.49462574053 
1.0172219679 1.0172219679 1.0172219679 1.0172219679 1.2156949949 1.271087727 1.3676273807 1.5707963268 2.1243706857 
1.3676273807 1.447813335 1.5707963268 1.7739652728 2.1243706857 2.6469669131 1.4827341049 1.5707963268 1.6937793186 
1.8705049266 2.1243706857 2.4613776767 2.8286213739 1.5707963268 1.6588585487 1.7739652728 1.9258976586 2.1243706857 
2.3709992258 2.6469669131 2.9144344902 0.26576171152 0.33975332011 0.45685295248 0.40226393329 0.51573716537 0.6552068806 
0.45538277901 0.56421707518 0.69407236469 0.84594095064 0.50083690068 0.60464862014 0.72561863695 0.86392567495 1.0172219679 
0.54002084522 0.63877777351 0.75168694275 0.87851444325 1.0172219679 1.1636342747 0.57404952988 0.66790778838 0.77356233629 
0.89058134991 1.0172219679 1.1502619915 1.2852923014 0.60381225391 0.69302191562 0.79216440667 0.90072551443 1.0172219679 
1.139116835 1.2630228569 1.3852070904 0.71487100155 0.80816628637 0.80816628637 0.90937090954 0.90937090954 0.90937090954 
1.0172219679 1.0172219679 1.0172219679 1.0172219679 1.1296873865 1.1296873865 1.1296873865 1.1296873865 1.1296873865 
1.24411054 1.24411054 1.24411054 1.24411054 1.24411054 1.24411054 1.3575464161 1.3575464161 1.3575464161 
1.3575464161 1.3575464161 1.3575464161 1.3575464161 1.4671972081 1.4671972081 1.4671972081 1.4671972081 1.4671972081 
1.4671972081 1.4671972081 1.4671972081 1.6743954455 1.6743954455 1.7840462375 1.6743954455 1.7840462375 1.8974821136 
1.6743954455 1.7840462375 1.8974821136 2.0119052671 1.6743954455 1.7840462375 1.8974821136 2.0119052671 2.1243706857 
1.6743954455 1.7840462375 1.8974821136 2.0119052671 2.1243706857 2.232221744 1.6743954455 1.7840462375 1.8974821136 
2.0119052671 2.1243706857 2.232221744 2.3334263672 1.6743954455 1.7840462375 1.8974821136 2.0119052671 2.1243706857 
2.232221744 2.3334263672 2.426721652 1.7563855631 1.8785697967 1.8563003522 2.0024758186 1.9913306621 1.9779583789 
2.1243706857 2.1243706857 2.1243706857 2.1243706857 2.2408671392 2.2510113037 2.2630782103 2.2776669786 2.295651703 
2.3494282469 2.3680303173 2.3899057108 2.4159740166 2.4475202889 2.486385773 2.448570738 2.4736848652 2.5028148801 
2.5369440334 2.5773755784 2.6258554882 2.6847397011 2.5377803997 2.5675431237 2.6015718084 2.6407557529 2.6862098746 
2.7393287203 2.8018393335 2.8758309421 2.718901062 2.8307207459 2.7598010554 2.95115522 2.8800620952 2.8058000847 
3.0774230472 3.00855263 2.9351694502 2.8576792927 3.0774230472 3.1415926536 3.0719036933 2.9967168029 2.91630358 
2.95115522 3.00855263 3.0719036933 3.1415926536 3.0653475414 2.9825888767 2.8307207459 2.8800620952 2.9351694502 
2.9967168029 3.0653475414 3.1415926536 3.0574329311 2.718901062 2.7598010554 2.8058000847 2.8576792927 2.91630358 
2.9825888767 3.0574329311 3.1415926536 2.718901062 2.7598010554 2.8307207459 2.8058000847 2.8800620952 2.95115522 
2.8576792927 2.9351694502 3.00855263 3.0774230472 2.91630358 2.9967168029 3.0719036933 3.1415926536 3.0774230472 
2.9825888767 3.0653475414 3.1415926536 3.0719036933 3.00855263 2.95115522 3.0574329311 3.1415926536 3.0653475414 