# vtk DataFile Version 5.1
vtk output
ASCII
DATASET POLYDATA
POINTS 1002 float
-10.4387 0.982225 -2.26048 -25.2251 -14.68 -5.1301 -9.3175 -2.1419 4.15642 
-24.0817 -15.6551 -0.412877 -13.4245 -6.49325 -3.44948 -14.0053 -7.80001 -0.0312455 
-21.215 -2.74025 -0.820057 -21.2785 -3.83141 3.06345 -23.7813 -28.2327 -5.39219 
-0.56819 -1.16437 0.324014 -29.6206 -20.6201 -3.20111 -9.74912 6.28992 3.08208 
-11.5421 0.255193 -2.42624 -12.8302 -0.624074 -2.57511 -14.277 -1.62324 -2.7238 
-15.918 -2.80987 -2.87521 -17.8236 -4.38335 -3.08504 -19.8906 -6.36715 -3.47719 
-21.8048 -8.52983 -4.01735 -23.3172 -10.6887 -4.50702 -24.4174 -12.7665 -4.85785 
-10.2234 0.41809 -2.46107 -10.0555 -0.213379 -2.67584 -9.94172 -0.850677 -2.99692 
-9.91663 -1.60086 -3.34014 -10.091 -2.55092 -3.57148 -10.4602 -3.5277 -3.77589 
-10.914 -4.3842 -3.95725 -11.5212 -5.15454 -3.92419 -12.3893 -5.85575 -3.6887 
-11.327 1.01836 -2.09815 -12.3054 0.924829 -1.86855 -13.4149 0.758905 -1.66106 
-14.6153 0.529209 -1.47625 -15.8087 0.143133 -1.24658 -17.0101 -0.389915 -1.05403 
-18.2258 -0.973855 -0.977054 -19.3507 -1.58001 -0.930639 -20.3387 -2.18138 -0.866049 
-9.23924 1.2929 -2.20556 -7.95341 1.57653 -2.15212 -6.59203 1.84737 -2.12131 
-5.13382 1.95963 -2.03524 -3.65478 1.779 -1.83918 -2.40939 1.41687 -1.57574 
-1.55258 0.947425 -1.21117 -0.990075 0.295061 -0.699331 -0.647545 -0.467592 -0.147487 
-9.98297 1.696 -1.96566 -9.56964 2.41709 -1.59071 -9.20492 3.15082 -1.18964 
-8.95806 3.86768 -0.737014 -8.85964 4.5494 -0.175543 -8.86378 5.18538 0.393793 
-8.99012 5.70654 0.924538 -9.24868 6.06542 1.5643 -9.53414 6.26095 2.33765 
-24.7254 -14.4685 -5.18474 -24.1079 -14.0834 -5.20512 -23.3304 -13.4894 -5.14235 
-22.3647 -12.6546 -4.99411 -21.252 -11.5712 -4.74303 -19.984 -10.2682 -4.32879 
-18.4403 -8.8927 -3.87092 -16.6625 -7.71333 -3.59459 -14.9207 -6.91619 -3.50277 
-25.206 -13.6243 -4.8967 -25.0963 -12.4141 -4.61313 -24.852 -11.0506 -4.25411 
-24.4564 -9.60381 -3.82554 -23.9718 -8.20645 -3.33974 -23.451 -6.92702 -2.79843 
-22.8732 -5.73853 -2.24494 -22.2632 -4.62247 -1.7343 -21.7017 -3.61042 -1.26783 
-25.6166 -16.5021 -5.44829 -25.9143 -18.4953 -5.81083 -26.0384 -20.621 -6.14679 
-25.9439 -22.8103 -6.39675 -25.6928 -24.8487 -6.62578 -25.3413 -26.5138 -6.83012 
-24.8925 -27.7733 -6.8121 -24.4254 -28.5498 -6.48236 -24.0493 -28.6813 -5.96704 
-25.9354 -15.8736 -5.26235 -26.6292 -17.0399 -5.38551 -27.2865 -18.2057 -5.44397 
-27.8979 -19.3481 -5.41528 -28.4263 -20.2938 -5.30915 -28.836 -20.8927 -5.10033 
-29.178 -21.1635 -4.748 -29.4735 -21.1774 -4.26951 -29.6339 -20.9787 -3.73231 
-10.4431 -2.76935 4.04536 -11.7716 -3.47429 3.87331 -13.392 -4.23802 3.58575 
-15.2948 -5.16973 3.13399 -17.2515 -6.44058 2.59694 -19.071 -8.02505 1.9636 
-20.7409 -9.78656 1.15012 -22.1917 -11.692 0.363432 -23.3011 -13.6969 -0.140075 
-9.28011 -2.75573 3.88717 -9.34208 -3.43983 3.57616 -9.52007 -4.09424 3.15927 
-9.77765 -4.67707 2.66865 -10.1471 -5.25828 2.1982 -10.7061 -5.86936 1.75139 
-11.443 -6.43385 1.29265 -12.2807 -6.91385 0.83319 -13.1526 -7.3553 0.38878 
-10.064 -1.98394 4.40199 -10.9339 -1.92333 4.65581 -12.0521 -1.94449 4.79957 
-13.4737 -2.02127 4.7784 -15.0753 -2.18105 4.66984 -16.7129 -2.45865 4.52225 
-18.2505 -2.79991 4.29866 -19.507 -3.13116 3.96855 -20.4618 -3.4623 3.53795 
-8.18885 -1.92816 4.04533 -7.01278 -1.73437 3.86619 -5.88777 -1.52732 3.58485 
-4.80854 -1.3239 3.21963 -3.71148 -1.15944 2.85906 -2.67332 -1.04548 2.5224 
-1.78595 -1.00966 2.09799 -1.07497 -1.05795 1.53502 -0.642492 -1.12818 0.916648 
-8.71049 -1.40286 4.35622 -8.09646 -0.549876 4.50749 -7.52805 0.537666 4.62086 
-7.14089 1.88538 4.69532 -7.02113 3.24996 4.64293 -7.16118 4.38089 4.46384 
-7.60219 5.28231 4.27963 -8.32665 5.95342 4.05436 -9.1149 6.28628 3.64807 
-23.5307 -15.1702 -0.469332 -22.8888 -14.5074 -0.505827 -22.0891 -13.7332 -0.460751 
-21.1416 -12.8659 -0.341063 -20.1226 -11.8503 -0.206737 -19.0036 -10.7377 -0.0809679 
-17.7588 -9.69945 0.0251584 -16.4787 -8.85108 0.0772682 -15.2235 -8.22179 0.0553213 
-24.1703 -14.7852 -0.232916 -24.1753 -13.7706 -0.0109769 -24.1131 -12.6993 0.334685 
-23.9968 -11.5338 0.751252 -23.7418 -10.1512 1.13478 -23.352 -8.66107 1.56122 
-22.9322 -7.305 2.06718 -22.4439 -6.10298 2.50268 -21.8521 -4.94847 2.81038 
-24.374 -17.3814 -0.696993 -24.6206 -19.2671 -1.04911 -24.7994 -21.2646 -1.37675 
-24.7843 -23.2044 -1.67105 -24.6084 -24.8883 -2.12627 -24.4544 -26.2078 -2.78535 
-24.2836 -27.1506 -3.48678 -24.0173 -27.8021 -4.18417 -23.8064 -28.192 -4.85831 
-24.8201 -17.0802 -0.533554 -25.5833 -18.4797 -0.696401 -26.3274 -19.7621 -0.872239 
-27.0363 -20.7933 -1.0729 -27.7468 -21.4353 -1.38585 -28.3917 -21.7179 -1.77291 
-28.8595 -21.7372 -2.12216 -29.1908 -21.5205 -2.45509 -29.4541 -21.1245 -2.82511 
-13.2555 -6.7182 -3.25378 -13.1176 -6.98328 -3.00958 -13.0468 -7.30659 -2.75699 
-13.0523 -7.64258 -2.47066 -13.0802 -7.89397 -2.08444 -13.1431 -7.98919 -1.63224 
-13.3014 -7.96652 -1.19354 -13.5313 -7.91663 -0.776385 -13.774 -7.86641 -0.379705 
-15.4676 -7.56992 -3.40967 -17.5459 -9.38451 -3.6396 -19.2962 -11.9461 -4.04201 
-20.6799 -14.9368 -4.44324 -21.821 -17.9599 -4.77493 -22.6897 -20.752 -5.00671 
-23.2571 -23.2195 -5.14517 -23.5698 -25.3498 -5.27983 -23.6944 -27.0575 -5.40394 
-11.4426 -6.03199 -3.54095 -9.59621 -5.83179 -3.60912 -7.87439 -5.62421 -3.47474 
-6.25585 -5.19965 -3.04219 -4.8565 -4.55094 -2.44544 -3.69683 -3.83549 -1.88694 
-2.63496 -3.1656 -1.35966 -1.66638 -2.51223 -0.786727 -0.945868 -1.8367 -0.206461 
-15.6286 -8.66277 -0.396242 -17.2861 -10.054 -0.864131 -18.816 -12.0577 -1.46958 
-20.1409 -14.5791 -2.10401 -21.2899 -17.3735 -2.59464 -22.1701 -20.1511 -2.98271 
-22.702 -22.6908 -3.4821 -23.0753 -24.9123 -4.14339 -23.4466 -26.7859 -4.81854 
-12.1854 -7.32234 0.10321 -10.2059 -7.08004 0.251206 -8.22941 -6.93116 0.412086 
-6.41003 -6.68373 0.556747 -4.84057 -6.23312 0.658871 -3.54798 -5.5025 0.669858 
-2.4773 -4.47152 0.583261 -1.57857 -3.31843 0.48382 -0.915856 -2.21491 0.412339 
-21.4347 -2.58419 -0.503856 -21.6355 -2.44328 -0.134065 -21.8367 -2.31012 0.302687 
-22.0197 -2.19526 0.849867 -22.1067 -2.16727 1.51382 -22.079 -2.27921 2.13571 
-21.9545 -2.53455 2.53867 -21.7335 -2.9192 2.75553 -21.4813 -3.37926 2.91475 
-22.3918 -3.87737 -1.08454 -23.677 -5.26977 -1.37119 -24.9937 -6.89553 -1.68054 
-26.2751 -8.57817 -2.06803 -27.4775 -10.2788 -2.53519 -28.5039 -12.3483 -2.94358 
-29.2169 -14.8745 -3.17886 -29.5746 -17.2939 -3.26285 -29.667 -19.1761 -3.25589 
-20.2074 -1.60403 -0.364565 -19.0974 -0.438152 0.119182 -17.8907 0.775972 0.56567 
-16.6726 1.98025 0.978571 -15.4619 3.06471 1.41722 -14.1855 3.99384 1.83322 
-12.9165 4.78081 2.14742 -11.7899 5.43064 2.42938 -10.7686 5.94495 2.75855 
-22.5446 -5.03145 2.43239 -24.0371 -6.53037 1.80127 -25.4863 -8.24868 1.1134 
-26.7201 -10.0319 0.347414 -27.8413 -11.8362 -0.308926 -28.8055 -13.7652 -0.795348 
-29.3642 -15.7995 -1.35461 -29.5407 -17.7002 -2.04732 -29.5845 -19.2952 -2.68641 
-20.2946 -2.48905 3.62119 -19.3273 -1.10783 4.12201 -18.1863 0.286297 4.41383 
-16.7366 1.65926 4.5238 -15.1849 2.98475 4.5845 -13.8303 4.15769 4.56057 
-12.6681 5.02839 4.34703 -11.5883 5.60928 3.98538 -10.6074 6.01671 3.5582 
-24.1196 -29.3799 -5.57249 -24.7714 -30.1202 -5.55795 -25.9074 -30.32 -5.36105 
-27.1961 -29.827 -5.10273 -28.0611 -28.7058 -4.8649 -28.5529 -27.3251 -4.59307 
-29.0274 -25.8256 -4.22319 -29.4118 -24.0982 -3.81563 -29.5735 -22.2831 -3.47115 
-0.461659 -0.0364688 0.557999 -0.68323 1.20557 0.788855 -1.23095 2.43933 1.03268 
-1.95828 3.56635 1.28047 -2.79387 4.5631 1.5103 -3.95067 5.40974 1.76595 
-5.49356 6.05301 2.125 -7.10443 6.42183 2.54461 -8.52833 6.47972 2.88569 
-11.4452 -0.355825 -2.65771 -11.3544 -0.984853 -2.93613 -12.8436 -1.23551 -2.87305 
-11.3126 -1.64328 -3.27618 -12.8419 -1.84585 -3.19858 -14.4317 -2.24154 -3.04688 
-11.4812 -2.49622 -3.53396 -12.9789 -2.60917 -3.4505 -14.6629 -2.97892 -3.30718 
-16.3325 -3.61501 -3.14789 -11.9149 -3.47016 -3.6867 -13.4466 -3.59853 -3.55759 
-15.1513 -4.00796 -3.42513 -16.9541 -4.71133 -3.34412 -18.5517 -5.55977 -3.37125 
-12.4409 -4.33924 -3.81656 -14.1398 -4.56047 -3.63779 -15.9151 -5.15369 -3.51282 
-17.7607 -6.04636 -3.5163 -19.435 -7.00738 -3.67315 -20.7524 -7.84614 -3.87973 
-13.0535 -5.16335 -3.81328 -14.8915 -5.48122 -3.68702 -16.7787 -6.24764 -3.67316 
-18.5843 -7.36819 -3.79428 -20.2298 -8.52314 -4.02992 -21.5488 -9.45502 -4.29887 
-22.5356 -10.1474 -4.4662 -13.9048 -6.04192 -3.64854 -15.7464 -6.56078 -3.63042 
-17.6481 -7.49964 -3.79345 -19.3435 -8.74723 -4.11109 -20.8142 -10.0188 -4.42735 
-22.0705 -11.0669 -4.68589 -23.0565 -11.8279 -4.85203 -23.8114 -12.3731 -4.89247 
-8.92323 0.679843 -2.41193 -7.56246 0.928442 -2.41107 -8.70293 0.0176544 -2.68875 
-6.13783 1.10483 -2.39267 -7.29257 0.191369 -2.73928 -8.55355 -0.708886 -3.0545 
-4.64693 1.02153 -2.21543 -5.84054 0.169182 -2.63057 -7.10207 -0.724327 -3.01975 
-8.50061 -1.63735 -3.33376 -3.26137 0.659267 -1.93677 -4.44107 -0.145603 -2.31968 
-5.73478 -0.987382 -2.73972 -7.10341 -1.85343 -3.15532 -8.70498 -2.72985 -3.52664 
-2.22503 0.16327 -1.645 -3.26626 -0.645265 -2.02417 -4.56839 -1.44716 -2.39608 
-5.94916 -2.24557 -2.84289 -7.47146 -3.04264 -3.36313 -9.15783 -3.78209 -3.79907 
-1.55221 -0.452532 -1.23512 -2.43126 -1.23284 -1.72643 -3.61484 -1.99744 -2.1402 
-4.98109 -2.75251 -2.5702 -6.47408 -3.49055 -3.12872 -8.07996 -4.16618 -3.68618 
-9.73575 -4.70363 -3.97932 -1.12971 -1.16443 -0.706705 -1.92069 -1.88177 -1.28387 
-2.96 -2.58677 -1.80695 -4.17104 -3.30523 -2.28336 -5.55998 -4.02965 -2.83637 
-7.13186 -4.66778 -3.42219 -8.77335 -5.13311 -3.80005 -10.483 -5.45744 -3.84935 
-1.44937 -2.94145 -0.168336 -2.25374 -4.11025 -0.147968 -2.35356 -3.64075 -0.789494 
-3.20745 -5.31636 -0.0776809 -3.24114 -4.85099 -0.803356 -3.42397 -4.31576 -1.38193 
-4.29585 -6.33314 0.0304297 -4.17026 -6.07005 -0.754719 -4.31537 -5.55207 -1.42944 
-4.49467 -5.03267 -1.97046 -5.73654 -6.95469 0.0801512 -5.33386 -7.0028 -0.643632 
[...]
POINT_DATA 1002
FIELD FieldData 4
_paraPhi 1 1002 double
6.2831853072 3.1415926536 6.2831853072 3.1415926536 4.7123889804 4.7123889804 1.5707963268 1.5707963268 3.6951670125 
5.7296109483 2.5880182947 0.5535743589 6.2831853072 6.2831853072 6.2831853072 6.2831853072 3.1415926536 3.1415926536 
3.1415926536 3.1415926536 3.1415926536 6.1053039672 5.898798347 5.6768734901 5.4599499503 5.2659633393 5.1032165617 
4.9713148346 4.8656852733 4.7809517865 0.17788134 0.38438696014 0.60631181711 0.82323535693 1.0172219679 1.1799687454 
1.3118704726 1.4175000338 1.5022335207 6.1892828907 6.1070320098 6.035312792 5.9728339911 5.9183214791 5.8706119594 
5.8286879411 5.7916808611 5.7588591896 0.093902416448 0.17615329733 0.2478725152 0.31035131605 0.36486382811 0.41257334776 
0.45449736604 0.4915044461 0.52432611754 3.3194739936 3.5259796137 3.7479044707 3.9648280105 4.1588146215 4.321561399 
4.4534631262 4.5590926874 4.6438261743 2.9637113136 2.7572056934 2.5352808365 2.3183572967 2.1243706857 1.9616239082 
1.829722181 1.7240926197 1.6393591329 3.23549507 3.3177459509 3.3894651688 3.4519439696 3.5064564817 3.5541660013 
3.5960900196 3.6330970997 3.6659187711 3.0476902371 2.9654393563 2.8937201384 2.8312413375 2.7767288255 2.7290193058 
2.6870952876 2.6500882075 2.617266536 6.2831853072 6.2831853072 6.2831853072 6.2831853072 3.1415926536 3.1415926536 
3.1415926536 3.1415926536 3.1415926536 6.1053039672 5.898798347 5.6768734901 5.4599499503 5.2659633393 5.1032165617 
4.9713148346 4.8656852733 4.7809517865 0.17788134 0.38438696014 0.60631181711 0.82323535693 1.0172219679 1.1799687454 
1.3118704726 1.4175000338 1.5022335207 6.1892828907 6.1070320098 6.035312792 5.9728339911 5.9183214791 5.8706119594 
5.8286879411 5.7916808611 5.7588591896 0.093902416448 0.17615329733 0.2478725152 0.31035131605 0.36486382811 0.41257334776 
0.45449736604 0.4915044461 0.52432611754 3.3194739936 3.5259796137 3.7479044707 3.9648280105 4.1588146215 4.321561399 
4.4534631262 4.5590926874 4.6438261743 2.9637113136 2.7572056934 2.5352808365 2.3183572967 2.1243706857 1.9616239082 
1.829722181 1.7240926197 1.6393591329 3.23549507 3.3177459509 3.3894651688 3.4519439696 3.5064564817 3.5541660013 
3.5960900196 3.6330970997 3.6659187711 3.0476902371 2.9654393563 2.8937201384 2.8312413375 2.7767288255 2.7290193058 
2.6870952876 2.6500882075 2.617266536 4.7123889804 4.7123889804 4.7123889804 4.7123889804 4.7123889804 4.7123889804 
4.7123889804 4.7123889804 4.7123889804 4.6087898617 4.4991390697 4.3857031936 4.2712800401 4.1588146215 4.0509635631 
3.94975894 3.8564636551 3.7716124825 4.8159880991 4.9256388911 5.0390747672 5.1534979207 5.2659633393 5.3738143976 
5.4750190208 5.5683143056 5.6531654782 4.6087898617 4.4991390697 4.3857031936 4.2712800401 4.1588146215 4.0509635631 
3.94975894 3.8564636551 3.7716124825 4.8159880991 4.9256388911 5.0390747672 5.1534979207 5.2659633393 5.3738143976 
5.4750190208 5.5683143056 5.6531654782 1.5707963268 1.5707963268 1.5707963268 1.5707963268 1.5707963268 1.5707963268 
1.5707963268 1.5707963268 1.5707963268 1.6743954455 1.7840462375 1.8974821136 2.0119052671 2.1243706857 2.232221744 
2.3334263672 2.426721652 2.5115728246 1.4671972081 1.3575464161 1.24411054 1.1296873865 1.0172219679 0.90937090954 
0.80816628637 0.71487100155 0.63001982895 1.6743954455 1.7840462375 1.8974821136 2.0119052671 2.1243706857 2.232221744 
2.3334263672 2.426721652 2.5115728246 1.4671972081 1.3575464161 1.24411054 1.1296873865 1.0172219679 0.90937090954 
0.80816628637 0.71487100155 0.63001982895 3.6007720849 3.4966939854 3.3839471039 3.2645756454 3.1415926536 3.0186096618 
2.8992382033 2.7864913217 2.6824132222 5.8240058758 5.9280839753 6.0408308569 6.1602023154 6.2831853072 0.12298299178 
0.2423544503 0.35510133185 0.45917943135 6.0560271438 5.7885595667 5.9702140275 5.5125918794 5.6029703303 5.7885595667 
5.2659633393 5.2659633393 5.2659633393 5.2659633393 5.0674903122 5.0120975802 4.9155579264 4.7123889804 4.1588146215 
4.9155579264 4.8353719722 4.7123889804 4.5092200343 4.1588146215 3.6362183941 4.8004512023 4.7123889804 4.5894059886 
4.4126803806 4.1588146215 3.8218076305 3.4545639333 4.7123889804 4.6243267584 4.5092200343 4.3572876485 4.1588146215 
3.9121860814 3.6362183941 3.368750817 6.0174235957 5.9434319871 5.8263323547 5.8809213739 5.7674481418 5.6279784266 
5.8278025282 5.718968232 5.5891129425 5.4372443565 5.7823484065 5.678536687 5.5575666702 5.4192596322 5.2659633393 
5.743164462 5.6444075337 5.5314983644 5.4046708639 5.2659633393 5.1195510325 5.7091357773 5.6152775188 5.5096229709 
5.3926039573 5.2659633393 5.1329233157 4.9978930058 5.6793730533 5.5901633916 5.4910209005 5.3824597928 5.2659633393 
5.1440684722 5.0201624502 4.8979782167 5.5683143056 5.4750190208 5.4750190208 5.3738143976 5.3738143976 5.3738143976 
5.2659633393 5.2659633393 5.2659633393 5.2659633393 5.1534979207 5.1534979207 5.1534979207 5.1534979207 5.1534979207 
5.0390747672 5.0390747672 5.0390747672 5.0390747672 5.0390747672 5.0390747672 4.9256388911 4.9256388911 4.9256388911 
4.9256388911 4.9256388911 4.9256388911 4.9256388911 4.8159880991 4.8159880991 4.8159880991 4.8159880991 4.8159880991 
4.8159880991 4.8159880991 4.8159880991 4.6087898617 4.6087898617 4.4991390697 4.6087898617 4.4991390697 4.3857031936 
4.6087898617 4.4991390697 4.3857031936 4.2712800401 4.6087898617 4.4991390697 4.3857031936 4.2712800401 4.1588146215 
4.6087898617 4.4991390697 4.3857031936 4.2712800401 4.1588146215 4.0509635631 4.6087898617 4.4991390697 4.3857031936 
4.2712800401 4.1588146215 4.0509635631 3.94975894 4.6087898617 4.4991390697 4.3857031936 4.2712800401 4.1588146215 
4.0509635631 3.94975894 3.8564636551 4.526799744 4.4046155105 4.426884955 4.2807094886 4.2918546451 4.3052269283 
4.1588146215 4.1588146215 4.1588146215 4.1588146215 4.042318168 4.0321740035 4.0201070968 4.0055183285 3.9875336042 
3.9337570603 3.9151549899 3.8932795963 3.8672112905 3.8356650183 3.7967995342 3.8346145692 3.809500442 3.7803704271 
3.7462412737 3.7058097288 3.657329819 3.5984456061 3.7454049075 3.7156421835 3.6816134988 3.6424295543 3.5969754326 
3.5438565869 3.4813459737 3.4073543651 3.5642842451 3.4524645613 3.5233842518 3.3320300872 3.403123212 3.4773852225 
3.20576226 3.2746326772 3.348015857 3.4255060145 3.0774230472 3.1415926536 3.2112816139 3.2864685043 3.3668817272 
2.95115522 3.00855263 3.0719036933 3.1415926536 3.2178377658 3.3005964304 2.8307207459 2.8800620952 2.9351694502 
2.9967168029 3.0653475414 3.1415926536 3.225752376 2.718901062 2.7598010554 2.8058000847 2.8576792927 2.91630358 
2.9825888767 3.0574329311 3.1415926536 3.5642842451 3.5233842518 3.4524645613 3.4773852225 3.403123212 3.3320300872 
3.4255060145 3.348015857 3.2746326772 3.20576226 3.3668817272 3.2864685043 3.2112816139 3.1415926536 3.0774230472 
3.3005964304 3.2178377658 3.1415926536 3.0719036933 3.00855263 2.95115522 3.225752376 3.1415926536 3.0653475414 
2.9967168029 2.9351694502 2.8800620952 2.8307207459 3.1415926536 3.0574329311 2.9825888767 2.91630358 2.8576792927 
2.8058000847 2.7598010554 2.718901062 4.526799744 4.426884955 4.4046155105 4.3052269283 4.2918546451 4.2807094886 
4.1588146215 4.1588146215 4.1588146215 4.1588146215 3.9875336042 4.0055183285 4.0201070968 4.0321740035 4.042318168 
3.7967995342 3.8356650183 3.8672112905 3.8932795963 3.9151549899 3.9337570603 3.5984456061 3.657329819 3.7058097288 
3.7462412737 3.7803704271 3.809500442 3.8346145692 3.4073543651 3.4813459737 3.5438565869 3.5969754326 3.6424295543 
3.6816134988 3.7156421835 3.7454049075 4.7123889804 4.8004512023 4.6243267584 4.9155579264 4.7123889804 4.5092200343 
5.0674903122 4.8353719722 4.5894059886 4.3572876485 5.2659633393 5.0120975802 4.7123889804 4.4126803806 4.1588146215 
5.5125918794 5.2659633393 4.9155579264 4.5092200343 4.1588146215 3.9121860814 5.7885595667 5.6029703303 5.2659633393 
4.7123889804 4.1588146215 3.8218076305 3.6362183941 6.0560271438 5.9702140275 5.7885595667 5.2659633393 4.1588146215 
3.6362183941 3.4545639333 3.368750817 0.22715816343 0.49462574053 0.3129712797 0.77059342779 0.68021497688 0.49462574053 
1.0172219679 1.0172219679 1.0172219679 1.0172219679 1.2156949949 1.271087727 1.3676273807 1.5707963268 2.1243706857 
1.3676273807 1.447813335 1.5707963268 1.7739652728 2.1243706857 2.6469669131 1.4827341049 1.5707963268 1.6937793186 
1.8705049266 2.1243706857 2.4613776767 2.8286213739 1.5707963268 1.6588585487 1.7739652728 1.9258976586 2.1243706857 
2.3709992258 2.6469669131 2.9144344902 1.7563855631 1.8785697967 1.8563003522 2.0024758186 1.9913306621 1.9779583789 
2.1243706857 2.1243706857 2.1243706857 2.1243706857 2.2408671392 2.2510113037 2.2630782103 2.2776669786 2.295651703 
2.3494282469 2.3680303173 2.3899057108 2.4159740166 2.4475202889 2.486385773 2.448570738 2.4736848652 2.5028148801 
2.5369440334 2.5773755784 2.6258554882 2.6847397011 2.5377803997 2.5675431237 2.6015718084 2.6407557529 2.6862098746 
2.7393287203 2.8018393335 2.8758309421 1.6743954455 1.6743954455 1.7840462375 1.6743954455 1.7840462375 1.8974821136 
1.6743954455 1.7840462375 1.8974821136 2.0119052671 1.6743954455 1.7840462375 1.8974821136 2.0119052671 2.1243706857 
1.6743954455 1.7840462375 1.8974821136 2.0119052671 2.1243706857 2.232221744 1.6743954455 1.7840462375 1.8974821136 
2.0119052671 2.1243706857 2.232221744 2.3334263672 1.6743954455 1.7840462375 1.8974821136 2.0119052671 2.1243706857 
2.232221744 2.3334263672 2.426721652 1.4671972081 1.3575464161 1.4671972081 1.24411054 1.3575464161 1.4671972081 
1.1296873865 1.24411054 1.3575464161 1.4671972081 1.0172219679 1.1296873865 1.24411054 1.3575464161 1.4671972081 
0.90937090954 1.0172219679 1.1296873865 1.24411054 1.3575464161 1.4671972081 0.80816628637 0.90937090954 1.0172219679 
1.1296873865 1.24411054 1.3575464161 1.4671972081 0.71487100155 0.80816628637 0.90937090954 1.0172219679 1.1296873865 
1.24411054 1.3575464161 1.4671972081 0.60381225391 0.57404952988 0.69302191562 0.54002084522 0.66790778838 0.79216440667 
0.50083690068 0.63877777351 0.77356233629 0.90072551443 0.45538277901 0.60464862014 0.75168694275 0.89058134991 1.0172219679 
0.40226393329 0.56421707518 0.72561863695 0.87851444325 1.0172219679 1.139116835 0.33975332011 0.51573716537 0.69407236469 
0.86392567495 1.0172219679 1.1502619915 1.2630228569 0.26576171152 0.45685295248 0.6552068806 0.84594095064 1.0172219679 
1.1636342747 1.2852923014 1.3852070904 0.22715816343 0.3129712797 0.49462574053 0.49462574053 0.68021497688 0.77059342779 
1.0172219679 1.0172219679 1.0172219679 1.0172219679 2.1243706857 1.5707963268 1.3676273807 1.271087727 1.2156949949 
2.6469669131 2.1243706857 1.7739652728 1.5707963268 1.447813335 1.3676273807 2.8286213739 2.4613776767 2.1243706857 
1.8705049266 1.6937793186 1.5707963268 1.4827341049 2.9144344902 2.6469669131 2.3709992258 2.1243706857 1.9258976586 
1.7739652728 1.6588585487 1.5707963268 1.7563855631 1.8563003522 1.8785697967 1.9779583789 1.9913306621 2.0024758186 
2.1243706857 2.1243706857 2.1243706857 2.1243706857 2.295651703 2.2776669786 2.2630782103 2.2510113037 2.2408671392 
2.486385773 2.4475202889 2.4159740166 2.3899057108 2.3680303173 2.3494282469 2.6847397011 2.6258554882 2.5773755784 
2.5369440334 2.5028148801 2.4736848652 2.448570738 2.8758309421 2.8018393335 2.7393287203 2.6862098746 2.6407557529 
2.6015718084 2.5675431237 2.5377803997 5.8604937156 5.901393709 5.9723133995 5.9473927383 6.0216547488 6.0927478736 
5.9992719463 6.0767621038 6.1501452836 6.2190157008 6.0578962336 6.1383094565 6.2134963469 0 0.064169606361 
6.1241815303 6.206940195 6.2831853072 0.069688960264 0.13304002361 0.19043743361 6.1990255847 0 0.07624511221 
0.14487585072 0.20642320337 0.26153055843 0.3108719077 0 0.084159722458 0.15900377685 0.22528907359 0.28391336087 
0.3357925689 0.38179159818 0.42269159155 5.8604937156 5.9723133995 5.901393709 6.0927478736 6.0216547488 5.9473927383 
6.2190157008 6.1501452836 6.0767621038 5.9992719463 0.064169606361 0 6.2134963469 6.1383094565 6.0578962336 
0.19043743361 0.13304002361 0.069688960264 6.2831853072 6.206940195 6.1241815303 0.3108719077 0.26153055843 0.20642320337 
0.14487585072 0.07624511221 6.2831853072 6.1990255847 0.42269159155 0.38179159818 0.3357925689 0.28391336087 0.22528907359 
0.15900377685 0.084159722458 0 5.6793730533 5.7091357773 5.5901633916 5.743164462 5.6152775188 5.4910209005 
5.7823484065 5.6444075337 5.5096229709 5.3824597928 5.8278025282 5.678536687 5.5314983644 5.3926039573 5.2659633393 
5.8809213739 5.718968232 5.5575666702 5.4046708639 5.2659633393 5.1440684722 5.9434319871 5.7674481418 5.5891129425 
5.4192596322 5.2659633393 5.1329233157 5.0201624502 6.0174235957 5.8263323547 5.6279784266 5.4372443565 5.2659633393 
5.1195510325 4.9978930058 4.8979782167 1.3852070904 1.2852923014 1.2630228569 1.1636342747 1.1502619915 1.139116835 
1.0172219679 1.0172219679 1.0172219679 1.0172219679 0.84594095064 0.86392567495 0.87851444325 0.89058134991 0.90072551443 
0.6552068806 0.69407236469 0.72561863695 0.75168694275 0.77356233629 0.79216440667 0.45685295248 0.51573716537 0.56421707518 
0.60464862014 0.63877777351 0.66790778838 0.69302191562 0.26576171152 0.33975332011 0.40226393329 0.45538277901 0.50083690068 
0.54002084522 0.57404952988 0.60381225391 
_paraPhiHalf 1 1002 double
0 3.1415926536 0 3.1415926536 1.5707963268 1.5707963268 1.5707963268 1.5707963268 2.5880182947 
0.5535743589 2.5880182947 0.5535743589 0 0 0 0 3.1415926536 3.1415926536 
3.1415926536 3.1415926536 3.1415926536 0.17788134 0.38438696014 0.60631181711 0.82323535693 1.0172219679 1.1799687454 
1.3118704726 1.4175000338 1.5022335207 0.17788134 0.38438696014 0.60631181711 0.82323535693 1.0172219679 1.1799687454 
1.3118704726 1.4175000338 1.5022335207 0.093902416448 0.17615329733 0.2478725152 0.31035131605 0.36486382811 0.41257334776 
0.45449736604 0.4915044461 0.52432611754 0.093902416448 0.17615329733 0.2478725152 0.31035131605 0.36486382811 0.41257334776 
0.45449736604 0.4915044461 0.52432611754 2.9637113136 2.7572056934 2.5352808365 2.3183572967 2.1243706857 1.9616239082 
1.829722181 1.7240926197 1.6393591329 2.9637113136 2.7572056934 2.5352808365 2.3183572967 2.1243706857 1.9616239082 
1.829722181 1.7240926197 1.6393591329 3.0476902371 2.9654393563 2.8937201384 2.8312413375 2.7767288255 2.7290193058 
2.6870952876 2.6500882075 2.617266536 3.0476902371 2.9654393563 2.8937201384 2.8312413375 2.7767288255 2.7290193058 
2.6870952876 2.6500882075 2.617266536 0 0 0 0 3.1415926536 3.1415926536 
3.1415926536 3.1415926536 3.1415926536 0.17788134 0.38438696014 0.60631181711 0.82323535693 1.0172219679 1.1799687454 
1.3118704726 1.4175000338 1.5022335207 0.17788134 0.38438696014 0.60631181711 0.82323535693 1.0172219679 1.1799687454 
1.3118704726 1.4175000338 1.5022335207 0.093902416448 0.17615329733 0.2478725152 0.31035131605 0.36486382811 0.41257334776 
0.45449736604 0.4915044461 0.52432611754 0.093902416448 0.17615329733 0.2478725152 0.31035131605 0.36486382811 0.41257334776 
0.45449736604 0.4915044461 0.52432611754 2.9637113136 2.7572056934 2.5352808365 2.3183572967 2.1243706857 1.9616239082 
1.829722181 1.7240926197 1.6393591329 2.9637113136 2.7572056934 2.5352808365 2.3183572967 2.1243706857 1.9616239082 
1.829722181 1.7240926197 1.6393591329 3.0476902371 2.9654393563 2.8937201384 2.8312413375 2.7767288255 2.7290193058 
2.6870952876 2.6500882075 2.617266536 3.0476902371 2.9654393563 2.8937201384 2.8312413375 2.7767288255 2.7290193058 
2.6870952876 2.6500882075 2.617266536 1.5707963268 1.5707963268 1.5707963268 1.5707963268 1.5707963268 1.5707963268 
1.5707963268 1.5707963268 1.5707963268 1.6743954455 1.7840462375 1.8974821136 2.0119052671 2.1243706857 2.232221744 
2.3334263672 2.426721652 2.5115728246 1.4671972081 1.3575464161 1.24411054 1.1296873865 1.0172219679 0.90937090954 
0.80816628637 0.71487100155 0.63001982895 1.6743954455 1.7840462375 1.8974821136 2.0119052671 2.1243706857 2.232221744 
2.3334263672 2.426721652 2.5115728246 1.4671972081 1.3575464161 1.24411054 1.1296873865 1.0172219679 0.90937090954 
0.80816628637 0.71487100155 0.63001982895 1.5707963268 1.5707963268 1.5707963268 1.5707963268 1.5707963268 1.5707963268 
1.5707963268 1.5707963268 1.5707963268 1.6743954455 1.7840462375 1.8974821136 2.0119052671 2.1243706857 2.232221744 
2.3334263672 2.426721652 2.5115728246 1.4671972081 1.3575464161 1.24411054 1.1296873865 1.0172219679 0.90937090954 
0.80816628637 0.71487100155 0.63001982895 1.6743954455 1.7840462375 1.8974821136 2.0119052671 2.1243706857 2.232221744 
2.3334263672 2.426721652 2.5115728246 1.4671972081 1.3575464161 1.24411054 1.1296873865 1.0172219679 0.90937090954 
0.80816628637 0.71487100155 0.63001982895 2.6824132222 2.7864913217 2.8992382033 3.0186096618 3.1415926536 3.0186096618 
2.8992382033 2.7864913217 2.6824132222 0.45917943135 0.35510133185 0.2423544503 0.12298299178 0 0.12298299178 
0.2423544503 0.35510133185 0.45917943135 0.22715816343 0.49462574053 0.3129712797 0.77059342779 0.68021497688 0.49462574053 
1.0172219679 1.0172219679 1.0172219679 1.0172219679 1.2156949949 1.271087727 1.3676273807 1.5707963268 2.1243706857 
1.3676273807 1.447813335 1.5707963268 1.7739652728 2.1243706857 2.6469669131 1.4827341049 1.5707963268 1.6937793186 
1.8705049266 2.1243706857 2.4613776767 2.8286213739 1.5707963268 1.6588585487 1.7739652728 1.9258976586 2.1243706857 
2.3709992258 2.6469669131 2.9144344902 0.26576171152 0.33975332011 0.45685295248 0.40226393329 0.51573716537 0.6552068806 
0.45538277901 0.56421707518 0.69407236469 0.84594095064 0.50083690068 0.60464862014 0.72561863695 0.86392567495 1.0172219679 
0.54002084522 0.63877777351 0.75168694275 0.87851444325 1.0172219679 1.1636342747 0.57404952988 0.66790778838 0.77356233629 
0.89058134991 1.0172219679 1.1502619915 1.2852923014 0.60381225391 0.69302191562 0.79216440667 0.90072551443 1.0172219679 
1.139116835 1.2630228569 1.3852070904 0.71487100155 0.80816628637 0.80816628637 0.90937090954 0.90937090954 0.90937090954 
1.0172219679 1.0172219679 1.0172219679 1.0172219679 1.1296873865 1.1296873865 1.1296873865 1.1296873865 1.1296873865 
1.24411054 1.24411054 1.24411054 1.24411054 1.24411054 1.24411054 1.3575464161 1.3575464161 1.3575464161 
1.3575464161 1.3575464161 1.3575464161 1.3575464161 1.4671972081 1.4671972081 1.4671972081 1.4671972081 1.4671972081 
1.4671972081 1.4671972081 1.4671972081 1.6743954455 1.6743954455 1.7840462375 1.6743954455 1.7840462375 1.8974821136 
1.6743954455 1.7840462375 1.8974821136 2.0119052671 1.6743954455 1.7840462375 1.8974821136 2.0119052671 2.1243706857 
1.6743954455 1.7840462375 1.8974821136 2.0119052671 2.1243706857 2.232221744 1.6743954455 1.7840462375 1.8974821136 
2.0119052671 2.1243706857 2.232221744 2.3334263672 1.6743954455 1.7840462375 1.8974821136 2.0119052671 2.1243706857 
2.232221744 2.3334263672 2.426721652 1.7563855631 1.8785697967 1.8563003522 2.0024758186 1.9913306621 1.9779583789 
2.1243706857 2.1243706857 2.1243706857 2.1243706857 2.2408671392 2.2510113037 2.2630782103 2.2776669786 2.295651703 
2.3494282469 2.3680303173 2.3899057108 2.4159740166 2.4475202889 2.486385773 2.448570738 2.4736848652 2.5028148801 
2.5369440334 2.5773755784 2.6258554882 2.6847397011 2.5377803997 2.5675431237 2.6015718084 2.6407557529 2.6862098746 
2.7393287203 2.8018393335 2.8758309421 2.718901062 2.8307207459 2.7598010554 2.95115522 2.8800620952 2.8058000847 
3.0774230472 3.00855263 2.9351694502 2.8576792927 3.0774230472 3.1415926536 3.0719036933 2.9967168029 2.91630358 
2.95115522 3.00855263 3.0719036933 3.1415926536 3.0653475414 2.9825888767 2.8307207459 2.8800620952 2.9351694502 
2.9967168029 3.0653475414 3.1415926536 3.0574329311 2.718901062 2.7598010554 2.8058000847 2.8576792927 2.91630358 
2.9825888767 3.0574329311 3.1415926536 2.718901062 2.7598010554 2.8307207459 2.8058000847 2.8800620952 2.95115522 
2.8576792927 2.9351694502 3.00855263 3.0774230472 2.91630358 2.9967168029 3.0719036933 3.1415926536 3.0774230472 
2.9825888767 3.0653475414 3.1415926536 3.0719036933 3.00855263 2.95115522 3.0574329311 3.1415926536 3.0653475414 