# vtk DataFile Version 5.1
vtk output
ASCII
DATASET POLYDATA
POINTS 1002 float
-10.4274 -0.342615 -1.67403 -21.6472 -18.0279 -2.87528 -8.55424 -2.6082 4.4323 
-19.8045 -18.5135 1.82665 -11.5712 -8.0099 -2.18227 -11.7058 -9.20714 1.38858 
-20.0937 -5.87734 1.07353 -20.0495 -6.85812 5.04619 -16.1892 -30.5303 -3.37503 
-0.7109 -0.380194 -0.0216833 -24.1804 -24.269 -0.926956 -10.6213 4.99308 3.12065 
-11.2819 -1.10638 -1.69797 -12.3211 -2.029 -1.70644 -13.5445 -3.24226 -1.63401 
-14.932 -4.80303 -1.43425 -16.4873 -6.71404 -1.24407 -18.1301 -8.99162 -1.29252 
-19.5991 -11.4908 -1.61673 -20.6681 -13.9214 -2.06939 -21.319 -16.1104 -2.51027 
-10.1339 -0.708963 -1.99396 -9.87451 -1.22209 -2.30709 -9.63576 -1.98187 -2.52148 
-9.48577 -2.86696 -2.68097 -9.56652 -3.77598 -2.91466 -9.85907 -4.77484 -3.1096 
-10.1466 -5.75413 -3.03872 -10.39 -6.5508 -2.76453 -10.8214 -7.25876 -2.46997 
-11.2847 -0.461524 -1.38701 -12.2823 -0.640692 -1.10805 -13.3561 -0.934913 -0.81751 
-14.3995 -1.39728 -0.450864 -15.4312 -2.0384 -0.0499227 -16.5211 -2.80727 0.273061 
-17.5881 -3.61869 0.524222 -18.5281 -4.41895 0.750377 -19.3537 -5.1807 0.935556 
-9.41173 0.1685 -1.81751 -8.27195 0.680877 -1.9075 -7.01242 1.13728 -1.95775 
-5.68032 1.46012 -2.00626 -4.3438 1.61023 -1.98338 -3.16496 1.56192 -1.77011 
-2.26302 1.28647 -1.36939 -1.55531 0.811042 -0.88762 -1.00149 0.22406 -0.425291 
-10.1778 0.393131 -1.47712 -9.99065 1.25734 -1.26032 -9.85847 2.08909 -0.955244 
-9.79552 2.80522 -0.536379 -9.78971 3.50461 -0.0382516 -9.79739 4.10158 0.539811 
-9.86497 4.45119 1.19449 -10.071 4.69679 1.86646 -10.3636 4.9223 2.51308 
-21.188 -17.7723 -2.89246 -20.6689 -17.3615 -2.84347 -20.0578 -16.7293 -2.75117 
-19.361 -15.7589 -2.58316 -18.6189 -14.4176 -2.2894 -17.6727 -12.7825 -1.93862 
-16.2898 -11.0109 -1.69007 -14.6055 -9.45122 -1.66921 -12.974 -8.45082 -1.87797 
-21.9228 -17.0228 -2.5914 -22.0889 -15.8591 -2.25182 -22.1195 -14.549 -1.85784 
-22.038 -13.1048 -1.4291 -21.8268 -11.6164 -1.00314 -21.4864 -10.2146 -0.563569 
-21.1135 -8.94351 -0.0921622 -20.767 -7.79409 0.352417 -20.4286 -6.77229 0.73199 
-21.4987 -19.7611 -3.2372 -21.2194 -21.5883 -3.60383 -20.8272 -23.4594 -3.97269 
-20.1988 -25.3083 -4.32672 -19.333 -27.0565 -4.57852 -18.5089 -28.6118 -4.62463 
-17.7997 -29.8148 -4.47699 -17.0688 -30.513 -4.21356 -16.4522 -30.7117 -3.84982 
-22.0187 -19.2423 -3.00804 -22.3561 -20.415 -3.08894 -22.6787 -21.5504 -3.16409 
-22.9802 -22.6763 -3.20467 -23.2266 -23.6685 -3.09696 -23.4124 -24.3295 -2.8206 
-23.6059 -24.6482 -2.43993 -23.8535 -24.7259 -1.9753 -24.0761 -24.5947 -1.44989 
-9.48562 -3.44871 4.529 -10.5628 -4.37553 4.58229 -11.8767 -5.46455 4.54233 
-13.4509 -6.80426 4.37839 -15.1162 -8.39712 4.1061 -16.6741 -10.2615 3.70499 
-17.9769 -12.3898 3.16895 -18.8999 -14.5841 2.62475 -19.4641 -16.6398 2.18402 
-8.4024 -3.2242 4.23567 -8.34091 -3.89385 3.99145 -8.37437 -4.55482 3.64022 
-8.47733 -5.24355 3.26005 -8.73858 -6.00756 2.94426 -9.19467 -6.75414 2.60963 
-9.731 -7.40171 2.21821 -10.318 -8.00129 1.88706 -10.9928 -8.60616 1.63757 
-9.27765 -2.57895 4.74398 -10.0264 -2.65032 5.10396 -10.9529 -2.83281 5.35978 
-12.2751 -3.15058 5.42055 -13.8529 -3.63958 5.4165 -15.3465 -4.3094 5.44037 
-16.735 -5.09977 5.40712 -18.0775 -5.85245 5.31125 -19.2195 -6.43139 5.20641 
-7.52944 -2.16466 4.19343 -6.47515 -1.75473 3.91713 -5.48493 -1.38254 3.55149 
-4.50626 -1.00821 3.11286 -3.50277 -0.648107 2.67995 -2.63007 -0.410843 2.21696 
-1.91078 -0.325293 1.63655 -1.24745 -0.309918 1.01374 -0.784801 -0.323885 0.463626 
-8.12723 -1.71515 4.49027 -7.73765 -0.7292 4.56031 -7.47437 0.37872 4.62613 
-7.4503 1.60648 4.61706 -7.65499 2.79433 4.49622 -8.00765 3.74806 4.33523 
-8.57207 4.44883 4.17189 -9.34968 4.92332 3.92636 -10.0958 5.10973 3.55482 
-19.3849 -17.9955 1.79538 -18.8992 -17.3069 1.78544 -18.3392 -16.4083 1.80291 
-17.7049 -15.2836 1.85644 -16.9564 -13.9914 1.93334 -16.0649 -12.6734 1.95506 
-15.0662 -11.4837 1.87406 -13.986 -10.5086 1.74605 -12.8416 -9.76039 1.59761 
-20.0487 -17.7726 2.08031 -20.309 -16.8433 2.36544 -20.537 -15.7425 2.69144 
-20.6791 -14.5666 3.0427 -20.7306 -13.3093 3.42514 -20.6863 -11.9161 3.83108 
-20.547 -10.5283 4.19902 -20.3815 -9.26245 4.52071 -20.2305 -8.04676 4.81858 
-19.7853 -20.1272 1.43431 -19.6436 -21.9471 1.00042 -19.3012 -23.899 0.601195 
-18.7692 -25.8201 0.231075 -18.1994 -27.578 -0.247039 -17.6573 -29.0424 -0.866186 
-17.0484 -30.0752 -1.52026 -16.4502 -30.6445 -2.1821 -16.1297 -30.7799 -2.83694 
-20.2132 -19.9429 1.63524 -20.62 -21.384 1.40914 -21.0235 -22.6421 1.14397 
-21.4681 -23.6138 0.856339 -21.9863 -24.3534 0.550631 -22.4837 -24.8329 0.249986 
-22.9133 -24.9585 -0.0184961 -23.3671 -24.8227 -0.287521 -23.8313 -24.586 -0.595747 
-11.3495 -8.33595 -2.1161 -11.1378 -8.58738 -1.88439 -10.9113 -8.74825 -1.54587 
-10.7764 -8.92994 -1.18499 -10.8031 -9.17045 -0.747522 -10.8936 -9.3423 -0.243174 
-11.0039 -9.37763 0.205808 -11.1937 -9.33892 0.612931 -11.4492 -9.27823 1.02603 
-13.4749 -9.27106 -1.70886 -15.4576 -11.2952 -1.42596 -16.8067 -13.9841 -1.56224 
-17.3681 -17.1471 -2.06085 -17.5699 -20.5051 -2.58907 -17.5693 -23.4744 -2.94221 
-17.3337 -25.7528 -3.18768 -16.9753 -27.6322 -3.39022 -16.5601 -29.2809 -3.47737 
-9.80144 -7.48039 -2.65428 -8.19439 -7.08094 -2.96265 -6.73008 -6.48353 -2.97663 
-5.41667 -5.65973 -2.704 -4.28127 -4.72159 -2.28181 -3.27275 -3.75484 -1.90049 
-2.35192 -2.84231 -1.52991 -1.54555 -1.9824 -1.02589 -0.958232 -1.14821 -0.471633 
-13.1515 -10.2409 1.22553 -14.575 -11.6945 0.953736 -15.7286 -13.8231 0.587437 
-16.5127 -16.6863 0.0988944 -16.9858 -19.7897 -0.487227 -17.1922 -22.5898 -1.03147 
-17.1429 -25.115 -1.56447 -16.8571 -27.4416 -2.21549 -16.4527 -29.301 -2.87764 
-10.107 -8.43034 1.25202 -8.45663 -7.78386 1.0591 -6.80886 -7.21333 0.923349 
-5.19909 -6.59534 0.880454 -3.80869 -5.85299 0.826191 -2.78066 -4.93268 0.681132 
-1.96026 -3.81176 0.481298 -1.2397 -2.60951 0.286385 -0.786302 -1.4554 0.120847 
-20.3204 -5.76304 1.3872 -20.5398 -5.6355 1.76082 -20.747 -5.47743 2.19477 
-20.9196 -5.31867 2.72144 -20.9758 -5.27199 3.30772 -20.854 -5.38507 3.83552 
-20.6454 -5.60029 4.28689 -20.4689 -5.92032 4.68422 -20.2969 -6.36737 4.95125 
-21.0215 -7.13845 0.964199 -21.9777 -8.62359 0.793793 -22.9366 -10.3436 0.564782 
-23.8818 -12.1133 0.310296 -24.6557 -13.9289 0.027656 -25.0419 -16.2434 -0.32962 
-25.071 -19.0343 -0.693621 -24.9109 -21.4806 -0.910318 -24.6099 -23.1318 -0.954205 
-19.2978 -4.57518 1.33605 -18.4376 -3.16997 1.60186 -17.5215 -1.76257 1.8355 
-16.5583 -0.453744 2.04212 -15.5939 0.798663 2.2647 -14.6146 2.0068 2.46093 
-13.5509 3.0313 2.6021 -12.4768 3.8266 2.76396 -11.5115 4.47622 2.96088 
-20.8435 -8.07598 4.61203 -21.6857 -9.64353 3.973 -22.6598 -11.5548 3.30981 
-23.6228 -13.5935 2.77756 -24.3554 -15.6577 2.26441 -24.7627 -17.8046 1.62016 
-24.8546 -19.9184 0.896812 -24.7281 -21.735 0.20294 -24.4883 -23.1478 -0.406803 
-19.2933 -5.41396 5.27243 -18.312 -3.85814 5.35993 -17.2317 -2.21135 5.39326 
-16.1167 -0.505723 5.40784 -14.9586 1.07826 5.33174 -13.9139 2.27411 5.11477 
-13.0598 3.1431 4.73729 -12.2472 3.91623 4.21489 -11.415 4.56968 3.64871 
-16.1508 -31.5583 -3.42429 -16.8089 -32.2383 -3.34549 -18.206 -32.5378 -3.18897 
-19.6744 -32.2336 -2.9378 -20.6829 -31.2907 -2.59526 -21.4801 -30.1087 -2.26408 
-22.297 -28.8251 -1.95478 -23.0199 -27.28 -1.5978 -23.6347 -25.6617 -1.23358 
-0.873254 0.756649 0.124933 -1.29231 1.94498 0.302777 -1.94284 3.03763 0.574445 
-2.87689 3.91491 0.894478 -4.05416 4.61616 1.16542 -5.36904 5.21087 1.44883 
-6.79606 5.59722 1.87711 -8.23404 5.64733 2.39144 -9.52265 5.40254 2.82561 
-11.0873 -1.53313 -2.03443 -10.9222 -2.1739 -2.31261 -12.2261 -2.59041 -2.00203 
-10.78 -3.01029 -2.46995 -12.1338 -3.33666 -2.20057 -13.5673 -3.96887 -1.83106 
-10.7832 -3.91243 -2.63004 -12.0867 -4.16511 -2.29097 -13.6016 -4.76527 -1.9326 
-15.1613 -5.69193 -1.55913 -11.0261 -4.89252 -2.83418 -12.2463 -5.09872 -2.3691 
-13.7643 -5.66551 -1.92784 -15.4862 -6.68241 -1.63174 -16.9819 -7.87822 -1.41584 
-11.3728 -5.86594 -2.823 -12.6566 -6.1549 -2.37421 -14.1959 -6.8282 -1.8703 
-15.9754 -7.98547 -1.62652 -17.5723 -9.33377 -1.59248 -18.7233 -10.5285 -1.58575 
-11.7181 -6.67997 -2.50867 -13.2123 -7.17014 -2.16366 -14.8692 -8.14098 -1.79322 
-16.5888 -9.56208 -1.64556 -18.1177 -11.1003 -1.76739 -19.2336 -12.3539 -1.91514 
-20.0159 -13.25 -1.99829 -12.2128 -7.48714 -2.14302 -13.8666 -8.2206 -1.86217 
-15.627 -9.5147 -1.7142 -17.2038 -11.167 -1.77109 -18.4652 -12.8402 -2.01429 
-19.4463 -14.1879 -2.26061 -20.1915 -15.0873 -2.39724 -20.7899 -15.6809 -2.47266 
-9.01242 -0.245665 -2.14273 -7.76222 0.197784 -2.23856 -8.64419 -0.865903 -2.44875 
-6.43504 0.552907 -2.29447 -7.32907 -0.546128 -2.55178 -8.32994 -1.73876 -2.66773 
-5.06065 0.741908 -2.27614 -6.00881 -0.320426 -2.57121 -7.0075 -1.51403 -2.78316 
-8.16609 -2.66591 -2.86609 -3.73099 0.717795 -2.11449 -4.66447 -0.289057 -2.4323 
-5.74099 -1.42015 -2.75115 -6.83905 -2.51112 -2.9751 -8.27473 -3.63522 -3.09365 
-2.68191 0.446963 -1.81163 -3.43173 -0.519775 -2.18083 -4.51196 -1.59597 -2.53534 
-5.61102 -2.61902 -2.89658 -6.92476 -3.64634 -3.13337 -8.58652 -4.78675 -3.19888 
-1.94178 -0.0285267 -1.4022 -2.55127 -0.961092 -1.87584 -3.48656 -1.98674 -2.24543 
-4.56545 -3.00676 -2.63437 -5.74022 -3.96921 -3.00886 -7.25664 -4.99621 -3.18693 
-8.89412 -5.92122 -3.10887 -1.35675 -0.590386 -0.932939 -1.96462 -1.47569 -1.48531 
-2.80202 -2.41929 -1.91717 -3.80116 -3.41884 -2.27582 -4.8792 -4.404 -2.69857 
-6.1661 -5.3623 -3.04634 -7.68213 -6.22283 -3.13381 -9.22658 -6.80034 -2.91985 
-1.18659 -2.29845 -0.385762 -1.74997 -3.54777 -0.271743 -1.91723 -3.18344 -0.973709 
-2.44485 -4.82684 -0.0821077 -2.45441 -4.50513 -0.871337 -2.78333 -4.07917 -1.46616 
-3.27318 -5.91938 0.186587 -3.06449 -5.81961 -0.651532 -3.27281 -5.4468 -1.36947 
-3.75337 -5.02299 -1.8588 -4.53026 -6.70584 0.405714 -4.03053 -6.83553 -0.323145 
-3.96514 -6.7316 -1.15444 -4.35381 -6.34267 -1.78917 -4.89603 -5.95688 -2.27001 
[...]
POINT_DATA 1002
FIELD FieldData 4
_paraPhi 1 1002 double
6.2831853072 3.1415926536 6.2831853072 3.1415926536 4.7123889804 4.7123889804 1.5707963268 1.5707963268 3.6951670125 
5.7296109483 2.5880182947 0.5535743589 6.2831853072 6.2831853072 6.2831853072 6.2831853072 3.1415926536 3.1415926536 
3.1415926536 3.1415926536 3.1415926536 6.1053039672 5.898798347 5.6768734901 5.4599499503 5.2659633393 5.1032165617 
4.9713148346 4.8656852733 4.7809517865 0.17788134 0.38438696014 0.60631181711 0.82323535693 1.0172219679 1.1799687454 
1.3118704726 1.4175000338 1.5022335207 6.1892828907 6.1070320098 6.035312792 5.9728339911 5.9183214791 5.8706119594 
5.8286879411 5.7916808611 5.7588591896 0.093902416448 0.17615329733 0.2478725152 0.31035131605 0.36486382811 0.41257334776 
0.45449736604 0.4915044461 0.52432611754 3.3194739936 3.5259796137 3.7479044707 3.9648280105 4.1588146215 4.321561399 
4.4534631262 4.5590926874 4.6438261743 2.9637113136 2.7572056934 2.5352808365 2.3183572967 2.1243706857 1.9616239082 
1.829722181 1.7240926197 1.6393591329 3.23549507 3.3177459509 3.3894651688 3.4519439696 3.5064564817 3.5541660013 
3.5960900196 3.6330970997 3.6659187711 3.0476902371 2.9654393563 2.8937201384 2.8312413375 2.7767288255 2.7290193058 
2.6870952876 2.6500882075 2.617266536 6.2831853072 6.2831853072 6.2831853072 6.2831853072 3.1415926536 3.1415926536 
3.1415926536 3.1415926536 3.1415926536 6.1053039672 5.898798347 5.6768734901 5.4599499503 5.2659633393 5.1032165617 
4.9713148346 4.8656852733 4.7809517865 0.17788134 0.38438696014 0.60631181711 0.82323535693 1.0172219679 1.1799687454 
1.3118704726 1.4175000338 1.5022335207 6.1892828907 6.1070320098 6.035312792 5.9728339911 5.9183214791 5.8706119594 
5.8286879411 5.7916808611 5.7588591896 0.093902416448 0.17615329733 0.2478725152 0.31035131605 0.36486382811 0.41257334776 
0.45449736604 0.4915044461 0.52432611754 3.3194739936 3.5259796137 3.7479044707 3.9648280105 4.1588146215 4.321561399 
4.4534631262 4.5590926874 4.6438261743 2.9637113136 2.7572056934 2.5352808365 2.3183572967 2.1243706857 1.9616239082 
1.829722181 1.7240926197 1.6393591329 3.23549507 3.3177459509 3.3894651688 3.4519439696 3.5064564817 3.5541660013 
3.5960900196 3.6330970997 3.6659187711 3.0476902371 2.9654393563 2.8937201384 2.8312413375 2.7767288255 2.7290193058 
2.6870952876 2.6500882075 2.617266536 4.7123889804 4.7123889804 4.7123889804 4.7123889804 4.7123889804 4.7123889804 
4.7123889804 4.7123889804 4.7123889804 4.6087898617 4.4991390697 4.3857031936 4.2712800401 4.1588146215 4.0509635631 
3.94975894 3.8564636551 3.7716124825 4.8159880991 4.9256388911 5.0390747672 5.1534979207 5.2659633393 5.3738143976 
5.4750190208 5.5683143056 5.6531654782 4.6087898617 4.4991390697 4.3857031936 4.2712800401 4.1588146215 4.0509635631 
3.94975894 3.8564636551 3.7716124825 4.8159880991 4.9256388911 5.0390747672 5.1534979207 5.2659633393 5.3738143976 
5.4750190208 5.5683143056 5.6531654782 1.5707963268 1.5707963268 1.5707963268 1.5707963268 1.5707963268 1.5707963268 
1.5707963268 1.5707963268 1.5707963268 1.6743954455 1.7840462375 1.8974821136 2.0119052671 2.1243706857 2.232221744 
2.3334263672 2.426721652 2.5115728246 1.4671972081 1.3575464161 1.24411054 1.1296873865 1.0172219679 0.90937090954 
0.80816628637 0.71487100155 0.63001982895 1.6743954455 1.7840462375 1.8974821136 2.0119052671 2.1243706857 2.232221744 
2.3334263672 2.426721652 2.5115728246 1.4671972081 1.3575464161 1.24411054 1.1296873865 1.0172219679 0.90937090954 
0.80816628637 0.71487100155 0.63001982895 3.6007720849 3.4966939854 3.3839471039 3.2645756454 3.1415926536 3.0186096618 
2.8992382033 2.7864913217 2.6824132222 5.8240058758 5.9280839753 6.0408308569 6.1602023154 6.2831853072 0.12298299178 
0.2423544503 0.35510133185 0.45917943135 6.0560271438 5.7885595667 5.9702140275 5.5125918794 5.6029703303 5.7885595667 
5.2659633393 5.2659633393 5.2659633393 5.2659633393 5.0674903122 5.0120975802 4.9155579264 4.7123889804 4.1588146215 
4.9155579264 4.8353719722 4.7123889804 4.5092200343 4.1588146215 3.6362183941 4.8004512023 4.7123889804 4.5894059886 
4.4126803806 4.1588146215 3.8218076305 3.4545639333 4.7123889804 4.6243267584 4.5092200343 4.3572876485 4.1588146215 
3.9121860814 3.6362183941 3.368750817 6.0174235957 5.9434319871 5.8263323547 5.8809213739 5.7674481418 5.6279784266 
5.8278025282 5.718968232 5.5891129425 5.4372443565 5.7823484065 5.678536687 5.5575666702 5.4192596322 5.2659633393 
5.743164462 5.6444075337 5.5314983644 5.4046708639 5.2659633393 5.1195510325 5.7091357773 5.6152775188 5.5096229709 
5.3926039573 5.2659633393 5.1329233157 4.9978930058 5.6793730533 5.5901633916 5.4910209005 5.3824597928 5.2659633393 
5.1440684722 5.0201624502 4.8979782167 5.5683143056 5.4750190208 5.4750190208 5.3738143976 5.3738143976 5.3738143976 
5.2659633393 5.2659633393 5.2659633393 5.2659633393 5.1534979207 5.1534979207 5.1534979207 5.1534979207 5.1534979207 
5.0390747672 5.0390747672 5.0390747672 5.0390747672 5.0390747672 5.0390747672 4.9256388911 4.9256388911 4.9256388911 
4.9256388911 4.9256388911 4.9256388911 4.9256388911 4.8159880991 4.8159880991 4.8159880991 4.8159880991 4.8159880991 
4.8159880991 4.8159880991 4.8159880991 4.6087898617 4.6087898617 4.4991390697 4.6087898617 4.4991390697 4.3857031936 
4.6087898617 4.4991390697 4.3857031936 4.2712800401 4.6087898617 4.4991390697 4.3857031936 4.2712800401 4.1588146215 
4.6087898617 4.4991390697 4.3857031936 4.2712800401 4.1588146215 4.0509635631 4.6087898617 4.4991390697 4.3857031936 
4.2712800401 4.1588146215 4.0509635631 3.94975894 4.6087898617 4.4991390697 4.3857031936 4.2712800401 4.1588146215 
4.0509635631 3.94975894 3.8564636551 4.526799744 4.4046155105 4.426884955 4.2807094886 4.2918546451 4.3052269283 
4.1588146215 4.1588146215 4.1588146215 4.1588146215 4.042318168 4.0321740035 4.0201070968 4.0055183285 3.9875336042 
3.9337570603 3.9151549899 3.8932795963 3.8672112905 3.8356650183 3.7967995342 3.8346145692 3.809500442 3.7803704271 
3.7462412737 3.7058097288 3.657329819 3.5984456061 3.7454049075 3.7156421835 3.6816134988 3.6424295543 3.5969754326 
3.5438565869 3.4813459737 3.4073543651 3.5642842451 3.4524645613 3.5233842518 3.3320300872 3.403123212 3.4773852225 
3.20576226 3.2746326772 3.348015857 3.4255060145 3.0774230472 3.1415926536 3.2112816139 3.2864685043 3.3668817272 
2.95115522 3.00855263 3.0719036933 3.1415926536 3.2178377658 3.3005964304 2.8307207459 2.8800620952 2.9351694502 
2.9967168029 3.0653475414 3.1415926536 3.225752376 2.718901062 2.7598010554 2.8058000847 2.8576792927 2.91630358 
2.9825888767 3.0574329311 3.1415926536 3.5642842451 3.5233842518 3.4524645613 3.4773852225 3.403123212 3.3320300872 
3.4255060145 3.348015857 3.2746326772 3.20576226 3.3668817272 3.2864685043 3.2112816139 3.1415926536 3.0774230472 
3.3005964304 3.2178377658 3.1415926536 3.0719036933 3.00855263 2.95115522 3.225752376 3.1415926536 3.0653475414 
2.9967168029 2.9351694502 2.8800620952 2.8307207459 3.1415926536 3.0574329311 2.9825888767 2.91630358 2.8576792927 
2.8058000847 2.7598010554 2.718901062 4.526799744 4.426884955 4.4046155105 4.3052269283 4.2918546451 4.2807094886 
4.1588146215 4.1588146215 4.1588146215 4.1588146215 3.9875336042 4.0055183285 4.0201070968 4.0321740035 4.042318168 
3.7967995342 3.8356650183 3.8672112905 3.8932795963 3.9151549899 3.9337570603 3.5984456061 3.657329819 3.7058097288 
3.7462412737 3.7803704271 3.809500442 3.8346145692 3.4073543651 3.4813459737 3.5438565869 3.5969754326 3.6424295543 
3.6816134988 3.7156421835 3.7454049075 4.7123889804 4.8004512023 4.6243267584 4.9155579264 4.7123889804 4.5092200343 
5.0674903122 4.8353719722 4.5894059886 4.3572876485 5.2659633393 5.0120975802 4.7123889804 4.4126803806 4.1588146215 
5.5125918794 5.2659633393 4.9155579264 4.5092200343 4.1588146215 3.9121860814 5.7885595667 5.6029703303 5.2659633393 
4.7123889804 4.1588146215 3.8218076305 3.6362183941 6.0560271438 5.9702140275 5.7885595667 5.2659633393 4.1588146215 
3.6362183941 3.4545639333 3.368750817 0.22715816343 0.49462574053 0.3129712797 0.77059342779 0.68021497688 0.49462574053 
1.0172219679 1.0172219679 1.0172219679 1.0172219679 1.2156949949 1.271087727 1.3676273807 1.5707963268 2.1243706857 
1.3676273807 1.447813335 1.5707963268 1.7739652728 2.1243706857 2.6469669131 1.4827341049 1.5707963268 1.6937793186 
1.8705049266 2.1243706857 2.4613776767 2.8286213739 1.5707963268 1.6588585487 1.7739652728 1.9258976586 2.1243706857 
2.3709992258 2.6469669131 2.9144344902 1.7563855631 1.8785697967 1.8563003522 2.0024758186 1.9913306621 1.9779583789 
2.1243706857 2.1243706857 2.1243706857 2.1243706857 2.2408671392 2.2510113037 2.2630782103 2.2776669786 2.295651703 
2.3494282469 2.3680303173 2.3899057108 2.4159740166 2.4475202889 2.486385773 2.448570738 2.4736848652 2.5028148801 
2.5369440334 2.5773755784 2.6258554882 2.6847397011 2.5377803997 2.5675431237 2.6015718084 2.6407557529 2.6862098746 
2.7393287203 2.8018393335 2.8758309421 1.6743954455 1.6743954455 1.7840462375 1.6743954455 1.7840462375 1.8974821136 
1.6743954455 1.7840462375 1.8974821136 2.0119052671 1.6743954455 1.7840462375 1.8974821136 2.0119052671 2.1243706857 
1.6743954455 1.7840462375 1.8974821136 2.0119052671 2.1243706857 2.232221744 1.6743954455 1.7840462375 1.8974821136 
2.0119052671 2.1243706857 2.232221744 2.3334263672 1.6743954455 1.7840462375 1.8974821136 2.0119052671 2.1243706857 
2.232221744 2.3334263672 2.426721652 1.4671972081 1.3575464161 1.4671972081 1.24411054 1.3575464161 1.4671972081 
1.1296873865 1.24411054 1.3575464161 1.4671972081 1.0172219679 1.1296873865 1.24411054 1.3575464161 1.4671972081 
0.90937090954 1.0172219679 1.1296873865 1.24411054 1.3575464161 1.4671972081 0.80816628637 0.90937090954 1.0172219679 
1.1296873865 1.24411054 1.3575464161 1.4671972081 0.71487100155 0.80816628637 0.90937090954 1.0172219679 1.1296873865 
1.24411054 1.3575464161 1.4671972081 0.60381225391 0.57404952988 0.69302191562 0.54002084522 0.66790778838 0.79216440667 
0.50083690068 0.63877777351 0.77356233629 0.90072551443 0.45538277901 0.60464862014 0.75168694275 0.89058134991 1.0172219679 
0.40226393329 0.56421707518 0.72561863695 0.87851444325 1.0172219679 1.139116835 0.33975332011 0.51573716537 0.69407236469 
0.86392567495 1.0172219679 1.1502619915 1.2630228569 0.26576171152 0.45685295248 0.6552068806 0.84594095064 1.0172219679 
1.1636342747 1.2852923014 1.3852070904 0.22715816343 0.3129712797 0.49462574053 0.49462574053 0.68021497688 0.77059342779 
1.0172219679 1.0172219679 1.0172219679 1.0172219679 2.1243706857 1.5707963268 1.3676273807 1.271087727 1.2156949949 
2.6469669131 2.1243706857 1.7739652728 1.5707963268 1.447813335 1.3676273807 2.8286213739 2.4613776767 2.1243706857 
1.8705049266 1.6937793186 1.5707963268 1.4827341049 2.9144344902 2.6469669131 2.3709992258 2.1243706857 1.9258976586 
1.7739652728 1.6588585487 1.5707963268 1.7563855631 1.8563003522 1.8785697967 1.9779583789 1.9913306621 2.0024758186 
2.1243706857 2.1243706857 2.1243706857 2.1243706857 2.295651703 2.2776669786 2.2630782103 2.2510113037 2.2408671392 
2.486385773 2.4475202889 2.4159740166 2.3899057108 2.3680303173 2.3494282469 2.6847397011 2.6258554882 2.5773755784 
2.5369440334 2.5028148801 2.4736848652 2.448570738 2.8758309421 2.8018393335 2.7393287203 2.6862098746 2.6407557529 
2.6015718084 2.5675431237 2.5377803997 5.8604937156 5.901393709 5.9723133995 5.9473927383 6.0216547488 6.0927478736 
5.9992719463 6.0767621038 6.1501452836 6.2190157008 6.0578962336 6.1383094565 6.2134963469 0 0.064169606361 
6.1241815303 6.206940195 6.2831853072 0.069688960264 0.13304002361 0.19043743361 6.1990255847 0 0.07624511221 
0.14487585072 0.20642320337 0.26153055843 0.3108719077 0 0.084159722458 0.15900377685 0.22528907359 0.28391336087 
0.3357925689 0.38179159818 0.42269159155 5.8604937156 5.9723133995 5.901393709 6.0927478736 6.0216547488 5.9473927383 
6.2190157008 6.1501452836 6.0767621038 5.9992719463 0.064169606361 0 6.2134963469 6.1383094565 6.0578962336 
0.19043743361 0.13304002361 0.069688960264 6.2831853072 6.206940195 6.1241815303 0.3108719077 0.26153055843 0.20642320337 
0.14487585072 0.07624511221 6.2831853072 6.1990255847 0.42269159155 0.38179159818 0.3357925689 0.28391336087 0.22528907359 
0.15900377685 0.084159722458 0 5.6793730533 5.7091357773 5.5901633916 5.743164462 5.6152775188 5.4910209005 
5.7823484065 5.6444075337 5.5096229709 5.3824597928 5.8278025282 5.678536687 5.5314983644 5.3926039573 5.2659633393 
5.8809213739 5.718968232 5.5575666702 5.4046708639 5.2659633393 5.1440684722 5.9434319871 5.7674481418 5.5891129425 
5.4192596322 5.2659633393 5.1329233157 5.0201624502 6.0174235957 5.8263323547 5.6279784266 5.4372443565 5.2659633393 
5.1195510325 4.9978930058 4.8979782167 1.3852070904 1.2852923014 1.2630228569 1.1636342747 1.1502619915 1.139116835 
1.0172219679 1.0172219679 1.0172219679 1.0172219679 0.84594095064 0.86392567495 0.87851444325 0.89058134991 0.90072551443 
0.6552068806 0.69407236469 0.72561863695 0.75168694275 0.77356233629 0.79216440667 0.45685295248 0.51573716537 0.56421707518 
0.60464862014 0.63877777351 0.66790778838 0.69302191562 0.26576171152 0.33975332011 0.40226393329 0.45538277901 0.50083690068 
0.54002084522 0.57404952988 0.60381225391 
_paraPhiHalf 1 1002 double
0 3.1415926536 0 3.1415926536 1.5707963268 1.5707963268 1.5707963268 1.5707963268 2.5880182947 
0.5535743589 2.5880182947 0.5535743589 0 0 0 0 3.1415926536 3.1415926536 
3.1415926536 3.1415926536 3.1415926536 0.17788134 0.38438696014 0.60631181711 0.82323535693 1.0172219679 1.1799687454 
1.3118704726 1.4175000338 1.5022335207 0.17788134 0.38438696014 0.60631181711 0.82323535693 1.0172219679 1.1799687454 
1.3118704726 1.4175000338 1.5022335207 0.093902416448 0.17615329733 0.2478725152 0.31035131605 0.36486382811 0.41257334776 
0.45449736604 0.4915044461 0.52432611754 0.093902416448 0.17615329733 0.2478725152 0.31035131605 0.36486382811 0.41257334776 
0.45449736604 0.4915044461 0.52432611754 2.9637113136 2.7572056934 2.5352808365 2.3183572967 2.1243706857 1.9616239082 
1.829722181 1.7240926197 1.6393591329 2.9637113136 2.7572056934 2.5352808365 2.3183572967 2.1243706857 1.9616239082 
1.829722181 1.7240926197 1.6393591329 3.0476902371 2.9654393563 2.8937201384 2.8312413375 2.7767288255 2.7290193058 
2.6870952876 2.6500882075 2.617266536 3.0476902371 2.9654393563 2.8937201384 2.8312413375 2.7767288255 2.7290193058 
2.6870952876 2.6500882075 2.617266536 0 0 0 0 3.1415926536 3.1415926536 
3.1415926536 3.1415926536 3.1415926536 0.17788134 0.38438696014 0.60631181711 0.82323535693 1.0172219679 1.1799687454 
1.3118704726 1.4175000338 1.5022335207 0.17788134 0.38438696014 0.60631181711 0.82323535693 1.0172219679 1.1799687454 
1.3118704726 1.4175000338 1.5022335207 0.093902416448 0.17615329733 0.2478725152 0.31035131605 0.36486382811 0.41257334776 
0.45449736604 0.4915044461 0.52432611754 0.093902416448 0.17615329733 0.2478725152 0.31035131605 0.36486382811 0.41257334776 
0.45449736604 0.4915044461 0.52432611754 2.9637113136 2.7572056934 2.5352808365 2.3183572967 2.1243706857 1.9616239082 
1.829722181 1.7240926197 1.6393591329 2.9637113136 2.7572056934 2.5352808365 2.3183572967 2.1243706857 1.9616239082 
1.829722181 1.7240926197 1.6393591329 3.0476902371 2.9654393563 2.8937201384 2.8312413375 2.7767288255 2.7290193058 
2.6870952876 2.6500882075 2.617266536 3.0476902371 2.9654393563 2.8937201384 2.8312413375 2.7767288255 2.7290193058 
2.6870952876 2.6500882075 2.617266536 1.5707963268 1.5707963268 1.5707963268 1.5707963268 1.5707963268 1.5707963268 
1.5707963268 1.5707963268 1.5707963268 1.6743954455 1.7840462375 1.8974821136 2.0119052671 2.1243706857 2.232221744 
2.3334263672 2.426721652 2.5115728246 1.4671972081 1.3575464161 1.24411054 1.1296873865 1.0172219679 0.90937090954 
0.80816628637 0.71487100155 0.63001982895 1.6743954455 1.7840462375 1.8974821136 2.0119052671 2.1243706857 2.232221744 
2.3334263672 2.426721652 2.5115728246 1.4671972081 1.3575464161 1.24411054 1.1296873865 1.0172219679 0.90937090954 
0.80816628637 0.71487100155 0.63001982895 1.5707963268 1.5707963268 1.5707963268 1.5707963268 1.5707963268 1.5707963268 
1.5707963268 1.5707963268 1.5707963268 1.6743954455 1.7840462375 1.8974821136 2.0119052671 2.1243706857 2.232221744 
2.3334263672 2.426721652 2.5115728246 1.4671972081 1.3575464161 1.24411054 1.1296873865 1.0172219679 0.90937090954 
0.80816628637 0.71487100155 0.63001982895 1.6743954455 1.7840462375 1.8974821136 2.0119052671 2.1243706857 2.232221744 
2.3334263672 2.426721652 2.5115728246 1.4671972081 1.3575464161 1.24411054 1.1296873865 1.0172219679 0.90937090954 
0.80816628637 0.71487100155 0.63001982895 2.6824132222 2.7864913217 2.8992382033 3.0186096618 3.1415926536 3.0186096618 
2.8992382033 2.7864913217 2.6824132222 0.45917943135 0.35510133185 0.2423544503 0.12298299178 0 0.12298299178 
0.2423544503 0.35510133185 0.45917943135 0.22715816343 0.49462574053 0.3129712797 0.77059342779 0.68021497688 0.49462574053 
1.0172219679 1.0172219679 1.0172219679 1.0172219679 1.2156949949 1.271087727 1.3676273807 1.5707963268 2.1243706857 
1.3676273807 1.447813335 1.5707963268 1.7739652728 2.1243706857 2.6469669131 1.4827341049 1.5707963268 1.6937793186 
1.8705049266 2.1243706857 2.4613776767 2.8286213739 1.5707963268 1.6588585487 1.7739652728 1.9258976586 2.1243706857 
2.3709992258 2.6469669131 2.9144344902 0.26576171152 0.33975332011 0.45685295248 0.40226393329 0.51573716537 0.6552068806 
0.45538277901 0.56421707518 0.69407236469 0.84594095064 0.50083690068 0.60464862014 0.72561863695 0.86392567495 1.0172219679 
0.54002084522 0.63877777351 0.75168694275 0.87851444325 1.0172219679 1.1636342747 0.57404952988 0.66790778838 0.77356233629 
0.89058134991 1.0172219679 1.1502619915 1.2852923014 0.60381225391 0.69302191562 0.79216440667 0.90072551443 1.0172219679 
1.139116835 1.2630228569 1.3852070904 0.71487100155 0.80816628637 0.80816628637 0.90937090954 0.90937090954 0.90937090954 
1.0172219679 1.0172219679 1.0172219679 1.0172219679 1.1296873865 1.1296873865 1.1296873865 1.1296873865 1.1296873865 
1.24411054 1.24411054 1.24411054 1.24411054 1.24411054 1.24411054 1.3575464161 1.3575464161 1.3575464161 
1.3575464161 1.3575464161 1.3575464161 1.3575464161 1.4671972081 1.4671972081 1.4671972081 1.4671972081 1.4671972081 
1.4671972081 1.4671972081 1.4671972081 1.6743954455 1.6743954455 1.7840462375 1.6743954455 1.7840462375 1.8974821136 
1.6743954455 1.7840462375 1.8974821136 2.0119052671 1.6743954455 1.7840462375 1.8974821136 2.0119052671 2.1243706857 
1.6743954455 1.7840462375 1.8974821136 2.0119052671 2.1243706857 2.232221744 1.6743954455 1.7840462375 1.8974821136 
2.0119052671 2.1243706857 2.232221744 2.3334263672 1.6743954455 1.7840462375 1.8974821136 2.0119052671 2.1243706857 
2.232221744 2.3334263672 2.426721652 1.7563855631 1.8785697967 1.8563003522 2.0024758186 1.9913306621 1.9779583789 
2.1243706857 2.1243706857 2.1243706857 2.1243706857 2.2408671392 2.2510113037 2.2630782103 2.2776669786 2.295651703 
2.3494282469 2.3680303173 2.3899057108 2.4159740166 2.4475202889 2.486385773 2.448570738 2.4736848652 2.5028148801 
2.5369440334 2.5773755784 2.6258554882 2.6847397011 2.5377803997 2.5675431237 2.6015718084 2.6407557529 2.6862098746 
2.7393287203 2.8018393335 2.8758309421 2.718901062 2.8307207459 2.7598010554 2.95115522 2.8800620952 2.8058000847 
3.0774230472 3.00855263 2.9351694502 2.8576792927 3.0774230472 3.1415926536 3.0719036933 2.9967168029 2.91630358 
2.95115522 3.00855263 3.0719036933 3.1415926536 3.0653475414 2.9825888767 2.8307207459 2.8800620952 2.9351694502 
2.9967168029 3.0653475414 3.1415926536 3.0574329311 2.718901062 2.7598010554 2.8058000847 2.8576792927 2.91630358 
2.9825888767 3.0574329311 3.1415926536 2.718901062 2.7598010554 2.8307207459 2.8058000847 2.8800620952 2.95115522 
2.8576792927 2.9351694502 3.00855263 3.0774230472 2.91630358 2.9967168029 3.0719036933 3.1415926536 3.0774230472 
2.9825888767 3.0653475414 3.1415926536 3.0719036933 3.00855263 2.95115522 3.0574329311 3.1415926536 3.0653475414 