# vtk DataFile Version 5.1
vtk output
ASCII
DATASET POLYDATA
POINTS 100 float
-4.60317 4.52702 1.71023 -4.60417 4.52169 1.70452 -4.6088 4.50264 1.69115 
-4.61935 4.46978 1.6715 -4.63906 4.4229 1.64772 -4.67147 4.36177 1.62235 
-4.71973 4.28606 1.59804 -4.78592 4.19542 1.57717 -4.87068 4.08951 1.56156 
-4.97309 3.96803 1.55231 -5.09088 3.83083 1.54972 -5.22095 3.67798 1.5533 
-5.35997 3.50977 1.56196 -5.50508 3.3268 1.57421 -5.65445 3.12992 1.58834 
-5.80759 2.92019 1.60267 -5.9654 2.69879 1.61571 -6.12987 2.46695 1.62623 
-6.30358 2.22581 1.6333 -6.48911 1.97636 1.63627 -6.68846 1.71942 1.6347 
-6.90253 1.45559 1.62836 -7.131 1.18528 1.61712 -7.37239 0.908848 1.60096 
-7.62438 0.626594 1.58002 -7.88435 0.338877 1.55457 -8.14997 0.0461497 1.52506 
-8.41967 -0.251029 1.49213 -8.69299 -0.552023 1.45654 -8.97062 -0.856171 1.41911 
-9.25418 -1.16286 1.38062 -9.54582 -1.47159 1.34162 -9.84762 -1.782 1.30237 
-10.1611 -2.09388 1.26272 -10.4868 -2.40713 1.22213 -10.8243 -2.72165 1.17973 
-11.1719 -3.03731 1.13443 -11.5275 -3.35383 1.08518 -11.889 -3.67078 1.03114 
-12.255 -3.98762 0.971842 -12.6251 -4.30384 0.907377 -13.0004 -4.61914 0.838338 
-13.3835 -4.93369 0.765729 -13.7783 -5.24834 0.690742 -14.1888 -5.56487 0.614448 
-14.6189 -5.88604 0.537466 -15.0711 -6.21557 0.459668 -15.5457 -6.55794 0.379982 
-16.0406 -6.91804 0.296338 -16.551 -7.30072 0.205786 -17.0694 -7.7103 0.104787 
-17.5871 -8.15002 -0.0103726 -18.0942 -8.62173 -0.143086 -18.5813 -9.12559 -0.29594 
-19.0401 -9.66006 -0.470314 -19.4647 -10.2221 -0.666129 -19.8512 -10.8075 -0.881796 
-20.1988 -11.4115 -1.11438 -20.5085 -12.0292 -1.35993 -20.7833 -12.656 -1.61401 
-21.0267 -13.2883 -1.87217 -21.2428 -13.9236 -2.13051 -21.4346 -14.5605 -2.38609 
-21.6047 -15.1985 -2.63712 -21.754 -15.8378 -2.88307 -21.8829 -16.4789 -3.12443 
-21.9905 -17.1219 -3.36246 -22.0761 -17.7666 -3.59876 -22.1389 -18.4116 -3.83481 
-22.1784 -19.0549 -4.07161 -22.1952 -19.6935 -4.30944 -22.1904 -20.3239 -4.54771 
-22.166 -20.9423 -4.78511 -22.1243 -21.5451 -5.0198 -22.0681 -22.1292 -5.24971 
-22 -22.6921 -5.47293 -21.9226 -23.2323 -5.68802 -21.8384 -23.7491 -5.89422 
-21.7494 -24.2429 -6.09156 -21.6579 -24.7142 -6.28074 -21.5661 -25.164 -6.46295 
-21.4763 -25.5934 -6.63953 -21.3908 -26.0031 -6.81161 -21.3123 -26.3935 -6.97979 
-21.2429 -26.7647 -7.14388 -21.1848 -27.1163 -7.3028 -21.1392 -27.4474 -7.45463 
-21.1069 -27.7572 -7.59682 -21.0876 -28.0447 -7.72654 -21.0803 -28.309 -7.8411 
-21.0832 -28.5492 -7.93835 -21.0938 -28.7649 -8.01703 -21.1098 -28.9556 -8.07706 
-21.1285 -29.1209 -8.11954 -21.1476 -29.2609 -8.1467 -21.1653 -29.3753 -8.16157 
-21.1802 -29.4642 -8.16763 -21.1913 -29.5275 -8.16827 -21.1981 -29.5653 -8.16637 
-21.2003 -29.5776 -8.16386 
LINES 2 100
OFFSETS vtktypeint64
0 100 
CONNECTIVITY vtktypeint64
0 1 2 3 4 5 6 7 8 
9 10 11 12 13 14 15 16 17 
18 19 20 21 22 23 24 25 26 
27 28 29 30 31 32 33 34 35 
36 37 38 39 40 41 42 43 44 
45 46 47 48 49 50 51 52 53 
54 55 56 57 58 59 60 61 62 
63 64 65 66 67 68 69 70 71 
72 73 74 75 76 77 78 79 80 
81 82 83 84 85 86 87 88 89 
90 91 92 93 94 95 96 97 98 
99 
POINT_DATA 100
FIELD FieldData 3
_theta 1 100 double
0 0.031733259127 0.063466518254 0.095199777382 0.12693303651 0.15866629564 0.19039955476 0.22213281389 0.25386607302 
0.28559933214 0.31733259127 0.3490658504 0.38079910953 0.41253236865 0.44426562778 0.47599888691 0.50773214603 0.53946540516 
0.57119866429 0.60293192342 0.63466518254 0.66639844167 0.6981317008 0.72986495992 0.76159821905 0.79333147818 0.82506473731 
0.85679799643 0.88853125556 0.92026451469 0.95199777382 0.98373103294 1.0154642921 1.0471975512 1.0789308103 1.1106640695 
1.1423973286 1.1741305877 1.2058638468 1.237597106 1.2693303651 1.3010636242 1.3327968833 1.3645301425 1.3962634016 
1.4279966607 1.4597299198 1.491463179 1.5231964381 1.5549296972 1.5866629564 1.6183962155 1.6501294746 1.6818627337 
1.7135959929 1.745329252 1.7770625111 1.8087957702 1.8405290294 1.8722622885 1.9039955476 1.9357288068 1.9674620659 
1.999195325 2.0309285841 2.0626618433 2.0943951024 2.1261283615 2.1578616206 2.1895948798 2.2213281389 2.253061398 
2.2847946572 2.3165279163 2.3482611754 2.3799944345 2.4117276937 2.4434609528 2.4751942119 2.506927471 2.5386607302 
2.5703939893 2.6021272484 2.6338605076 2.6655937667 2.6973270258 2.7290602849 2.7607935441 2.7925268032 2.8242600623 
2.8559933214 2.8877265806 2.9194598397 2.9511930988 2.982926358 3.0146596171 3.0463928762 3.0781261353 3.1098593945 
3.1415926536 
_radius 1 100 double
5.6173335497e-15 0.29929011978 0.59833423769 0.89671552467 1.1938447715 1.4888525961 1.7805055937 2.0672020807 2.3470851674 
2.6182643416 2.8790848941 3.1283550429 3.3654496805 3.5902539981 3.8029698982 4.0038569885 4.19299842 4.3701659137 
4.5348196952 4.686236125 4.8237230724 4.9468661935 5.055746585 5.1510774851 5.234221867 5.3070734199 5.3718100375 
5.4305582629 5.4850325006 5.5362262303 5.5842277168 5.6282082677 5.6665913868 5.6973660916 5.7184701676 5.7281512967 
5.7252222551 5.7091580214 5.6800263026 5.6382835135 5.5844943434 5.5190434463 5.4419098217 5.3525740003 5.2501201182 
5.1335659531 5.0023966172 4.8572029542 4.700261304 4.5358654811 4.3702478029 4.2110025942 4.0660557534 3.9424126038 
3.8450897732 3.7765975271 3.7370142897 3.7243818171 3.7351503562 3.7646099595 3.8073777293 3.8579826489 3.9114890957 
3.9640292934 4.0131160881 4.0576708929 4.0977889584 4.1343313099 4.168452922 4.201153381 4.2328986649 4.2633442219 
4.2912009853 4.3143035565 4.3299217228 4.335280654 4.3281503251 4.3072999517 4.2726422191 4.2250060649 4.165614436 
4.0954393883 4.0146293234 3.9221608515 3.8157945965 3.6923435093 3.5482068406 3.380076324 3.1856772414 2.9643766732 
2.7174973484 2.4482334056 2.1611664342 1.8614963299 1.5541910045 1.2432848649 0.93149935875 0.62023412618 0.3098389811 
2.3704720473e-14 
_area 1 100 double
0 0.25832254848 1.0321353794 2.3172578484 4.1043988756 6.3759872895 9.1026275182 12.240433417 15.730810201 
19.503934359 23.486078746 27.609360346 31.821047111 36.08879635 40.398604367 44.744501248 49.113214445 53.470658808 
57.756492528 61.888700024 65.776367525 69.337024224 72.514049535 75.289378177 77.687668923 79.770413697 81.621437529 
83.327681746 84.960135215 86.559176289 88.127105256 89.629076106 91.002010514 92.168850836 93.053356534 93.590756509 
93.732491125 93.446603391 92.716594023 91.540489825 89.929845383 87.907009012 85.499525725 82.73336229 79.629819172 
76.211028776 72.514519386 68.611143603 64.616661319 60.687436814 56.995035802 53.686177484 50.853382583 48.536724727 
46.741918598 45.451793703 44.62766459 44.212139976 44.142371563 44.364579472 44.83594775 45.509981368 46.314133663 
47.142033742 47.876731101 48.429393498 48.764185393 48.90028011 48.899440005 48.848300787 48.839033847 48.947966777 
49.210954069 49.599208771 50.010231366 50.290565966 50.286109758 49.89251474 49.080893876 47.892886956 46.412776153 
44.729423487 42.901722208 40.93935025 38.804643947 36.432403365 33.758212831 30.745786546 27.40655801 23.807237621 
20.063876236 16.324510258 12.745620288 9.4690775675 6.6054958764 4.2273630309 2.3719351549 1.0508627355 0.2620719697 
1.4560741947e-13 
