# vtk DataFile Version 5.1
vtk output
ASCII
DATASET POLYDATA
POINTS 1002 float
-10.7595 0.644772 -2.20038 -24.6971 -14.2288 -5.18558 -9.4321 -2.38871 3.76554 
-24.056 -15.1826 -0.450582 -13.3535 -6.79713 -3.45749 -14.1055 -7.96047 -0.192561 
-21.0892 -2.92712 -0.797628 -21.3893 -3.85265 3.12159 -23.5469 -26.9198 -4.55878 
-1.61335 -1.57546 0.213554 -29.0851 -20.7979 -3.33225 -10.1737 5.49654 3.10959 
-11.7036 -0.00839248 -2.33554 -12.851 -0.744357 -2.49519 -14.1875 -1.66049 -2.68387 
-15.7275 -2.88238 -2.81386 -17.5637 -4.41463 -2.93654 -19.6089 -6.22487 -3.29641 
-21.4659 -8.30848 -3.8953 -22.8597 -10.4905 -4.47251 -23.8796 -12.4967 -4.89288 
-10.5524 0.0955654 -2.46167 -10.4057 -0.51555 -2.76592 -10.3012 -1.13772 -3.14478 
-10.2952 -1.81446 -3.54257 -10.521 -2.68396 -3.84342 -10.9381 -3.76113 -4.01345 
-11.3416 -4.83206 -4.07448 -11.7546 -5.68239 -3.99207 -12.4049 -6.29584 -3.75473 
-11.6054 0.724215 -2.02485 -12.6182 0.686243 -1.85674 -13.7365 0.528297 -1.68827 
-14.8643 0.2669 -1.45345 -15.991 -0.135536 -1.2021 -17.151 -0.644122 -1.06519 
-18.2893 -1.16604 -0.990608 -19.3221 -1.71843 -0.889181 -20.2464 -2.32588 -0.812194 
-9.7236 0.956851 -2.20466 -8.56306 1.26154 -2.16249 -7.24051 1.46502 -2.04857 
-5.86404 1.43942 -1.83461 -4.62426 1.19328 -1.5222 -3.60613 0.828663 -1.1851 
-2.78677 0.346799 -0.873779 -2.15851 -0.272472 -0.548184 -1.75794 -0.945486 -0.176447 
-10.4075 1.35577 -1.91303 -10.094 2.0762 -1.52725 -9.78264 2.77316 -1.08731 
-9.5143 3.43312 -0.611289 -9.37739 4.06772 -0.0480071 -9.35341 4.66196 0.530995 
-9.43253 5.12741 1.05371 -9.65842 5.41383 1.65744 -9.94833 5.53688 2.39788 
-24.1316 -14.0754 -5.20222 -23.4994 -13.766 -5.20648 -22.8142 -13.2174 -5.21999 
-22.03 -12.4229 -5.10245 -21.0717 -11.3765 -4.69658 -19.7923 -10.0369 -4.15348 
-18.1047 -8.5964 -3.75017 -16.2629 -7.48358 -3.54225 -14.6428 -6.92705 -3.45874 
-24.7099 -13.2613 -4.95528 -24.6062 -12.1566 -4.64634 -24.3855 -10.8807 -4.27673 
-24.0655 -9.4564 -3.87255 -23.642 -8.0916 -3.3992 -23.1333 -6.90721 -2.81705 
-22.577 -5.78812 -2.21314 -22.0139 -4.69666 -1.69236 -21.507 -3.72964 -1.23773 
-25.098 -15.8528 -5.43965 -25.416 -17.6936 -5.62226 -25.5684 -19.8669 -5.75402 
-25.4563 -22.2177 -5.95516 -25.0752 -24.2622 -6.17999 -24.6188 -25.7234 -6.17238 
-24.2811 -26.6846 -5.88092 -24.0311 -27.1963 -5.47473 -23.7781 -27.2475 -5.0327 
-25.4834 -15.3363 -5.293 -26.2241 -16.5231 -5.36199 -26.8448 -17.7211 -5.38161 
-27.3685 -18.8351 -5.32953 -27.8535 -19.7713 -5.21237 -28.2911 -20.439 -5.05848 
-28.6573 -20.8408 -4.83442 -28.9227 -21.0444 -4.45671 -29.0554 -21.0422 -3.92194 
-10.5247 -2.96345 3.61075 -11.7869 -3.602 3.43164 -13.2704 -4.33229 3.19316 
-15.0003 -5.21928 2.83978 -16.9031 -6.37589 2.43252 -18.8512 -7.8583 1.93469 
-20.6604 -9.59564 1.21791 -22.1419 -11.4727 0.453111 -23.2506 -13.372 -0.0998174 
-9.36932 -2.97283 3.48226 -9.42094 -3.61581 3.15179 -9.58108 -4.2817 2.78226 
-9.84497 -4.9532 2.37724 -10.2878 -5.60835 1.93029 -10.9197 -6.20143 1.45274 
-11.6534 -6.69116 0.970255 -12.4486 -7.09531 0.512947 -13.2837 -7.49925 0.12072 
-10.1921 -2.21269 3.9632 -10.9482 -2.11764 4.2251 -11.7564 -2.07339 4.48083 
-12.8832 -2.0082 4.52646 -14.3796 -1.98517 4.3309 -15.9751 -2.17328 4.1024 
-17.5417 -2.58767 3.91378 -19.0608 -3.07157 3.68555 -20.3797 -3.49747 3.4129 
-8.32676 -2.17876 3.70335 -7.24111 -1.97813 3.54017 -6.21063 -1.80164 3.28983 
-5.12466 -1.6413 3.03902 -4.00558 -1.49499 2.79752 -3.04437 -1.4295 2.49087 
-2.26209 -1.4607 2.0751 -1.67666 -1.50828 1.52904 -1.45689 -1.53985 0.874758 
-8.88235 -1.65576 3.98596 -8.38854 -0.767274 4.13392 -8.00237 0.315604 4.24664 
-7.78519 1.49833 4.37859 -7.7789 2.60387 4.41111 -7.96046 3.57229 4.26908 
-8.31598 4.40819 4.11396 -8.87195 5.04356 3.95999 -9.5501 5.40753 3.62665 
-23.5206 -14.6629 -0.518868 -22.8586 -14.0095 -0.509287 -22.0531 -13.2471 -0.387593 
-21.1171 -12.391 -0.239756 -20.0883 -11.4321 -0.123762 -18.9848 -10.441 -0.0290569 
-17.7952 -9.54605 0.00280971 -16.5414 -8.82137 -0.031712 -15.2912 -8.29707 -0.0900934 
-24.0938 -14.4636 -0.189742 -24.0572 -13.4956 0.0772193 -23.9408 -12.2873 0.388477 
-23.7618 -11.0124 0.786505 -23.4759 -9.78857 1.25545 -23.0588 -8.533 1.72423 
-22.6151 -7.22611 2.14236 -22.2131 -5.99123 2.51604 -21.8114 -4.87634 2.85186 
-24.3963 -16.7398 -0.813295 -24.6379 -18.5901 -1.17683 -24.7414 -20.7533 -1.44851 
-24.6636 -22.8481 -1.68903 -24.4764 -24.466 -2.10058 -24.3011 -25.6985 -2.64453 
-24.0692 -26.6869 -3.15664 -23.7489 -27.2545 -3.66357 -23.5398 -27.294 -4.16792 
-24.7629 -16.6059 -0.596468 -25.4717 -18.0985 -0.815729 -26.2113 -19.5131 -1.09065 
-26.9394 -20.7052 -1.31907 -27.5925 -21.5786 -1.52869 -28.1848 -22.048 -1.83199 
-28.7029 -22.111 -2.20026 -29.0374 -21.8905 -2.56672 -29.1396 -21.4602 -2.94642 
-13.3177 -7.08889 -3.27599 -13.2976 -7.36222 -3.05312 -13.2664 -7.65153 -2.80285 
-13.2643 -7.9379 -2.51424 -13.3045 -8.11837 -2.14257 -13.3527 -8.18673 -1.68829 
-13.447 -8.22706 -1.22706 -13.6369 -8.21684 -0.818563 -13.8781 -8.10921 -0.475904 
-15.3666 -7.59272 -3.28097 -17.5208 -9.2696 -3.51308 -19.1503 -11.8075 -4.06846 
-20.1399 -14.5565 -4.49519 -20.993 -16.9396 -4.5982 -21.916 -19.0528 -4.58506 
-22.7103 -21.2184 -4.5597 -23.2342 -23.4086 -4.52949 -23.4721 -25.3686 -4.54464 
-11.5991 -6.63184 -3.72964 -9.91798 -6.47898 -3.94703 -8.29327 -6.0922 -3.8486 
-6.88725 -5.55654 -3.42014 -5.72642 -4.95051 -2.81933 -4.61042 -4.25046 -2.16137 
-3.59221 -3.55762 -1.54753 -2.80184 -2.9176 -0.998123 -2.15029 -2.25373 -0.417585 
-15.6949 -8.76747 -0.442149 -17.3442 -9.98953 -0.855352 -18.8178 -11.74 -1.40951 
-19.994 -13.9427 -1.92649 -20.9953 -16.3346 -2.31194 -21.8811 -18.7539 -2.68165 
-22.5367 -21.1703 -3.12322 -22.9703 -23.4508 -3.6012 -23.2907 -25.402 -4.08329 
-12.3923 -7.46928 -0.203558 -10.5777 -7.1172 -0.232495 -8.75825 -6.86657 -0.121287 
-7.01538 -6.60343 0.126978 -5.40924 -6.2051 0.291973 -4.09069 -5.60627 0.282796 
-3.17712 -4.7598 0.229679 -2.52538 -3.71172 0.211014 -1.9851 -2.61472 0.210129 
-21.3546 -2.82391 -0.503929 -21.5922 -2.70343 -0.155489 -21.7831 -2.59462 0.270937 
-21.9474 -2.52734 0.810232 -22.0557 -2.50257 1.40416 -22.0447 -2.5465 1.94304 
-21.9396 -2.71622 2.40953 -21.8026 -3.02917 2.79173 -21.6286 -3.4354 3.02746 
-22.2041 -4.0266 -1.10836 -23.4485 -5.27023 -1.46349 -24.679 -6.72234 -1.82146 
-25.7934 -8.40688 -2.17472 -26.8877 -10.1137 -2.53007 -27.8744 -11.7914 -2.8506 
-28.4462 -13.8481 -3.08859 -28.6789 -16.3884 -3.24083 -28.8809 -18.8662 -3.32082 
-20.1802 -1.82923 -0.338759 -19.1649 -0.73184 0.14799 -18.0487 0.364065 0.608282 
-16.9339 1.46729 0.997783 -15.7921 2.49632 1.37973 -14.5112 3.35416 1.80508 
-13.2494 4.06948 2.19599 -12.1896 4.69892 2.5171 -11.2133 5.20119 2.82221 
-22.5042 -4.87572 2.60616 -23.647 -6.14096 1.92215 -24.8759 -7.70428 1.09977 
-26.1549 -9.44235 0.31964 -27.3629 -11.1712 -0.269499 -28.2752 -12.9312 -0.780672 
-28.7136 -14.9311 -1.37747 -28.8469 -17.1376 -2.05165 -28.9588 -19.1917 -2.72335 
-20.3446 -2.60854 3.50795 -19.1648 -1.277 3.83562 -17.9015 0.0657612 4.11404 
-16.5521 1.33987 4.33979 -15.2104 2.44707 4.46576 -14.0287 3.32021 4.41882 
-12.9675 4.03823 4.19578 -11.957 4.6766 3.8894 -11.0298 5.17875 3.54028 
-23.7682 -28.4244 -4.81434 -24.2515 -29.5306 -4.94964 -25.2534 -30.0083 -4.90961 
-26.6137 -29.7964 -4.79728 -27.6719 -28.9799 -4.67824 -28.1418 -27.6211 -4.47137 
-28.4726 -25.9026 -4.18479 -28.8956 -24.1752 -3.91242 -29.1406 -22.5379 -3.64488 
-1.30341 -0.497241 0.611332 -1.36707 0.658688 0.963534 -1.86036 1.83849 1.24108 
-2.62573 2.9464 1.53361 -3.54203 3.88002 1.86532 -4.63985 4.63947 2.13294 
-5.9492 5.24106 2.35615 -7.41422 5.60312 2.63209 -8.87944 5.66827 2.91621 
-11.5843 -0.594755 -2.62426 -11.5393 -1.21921 -2.9753 -12.8341 -1.3631 -2.81663 
-11.5695 -1.85581 -3.35561 -12.9281 -2.03781 -3.15517 -14.3229 -2.37932 -2.96211 
-11.7339 -2.63019 -3.66943 -13.1108 -2.7778 -3.43117 -14.6202 -3.16914 -3.2027 
-16.11 -3.7477 -3.00517 -12.0559 -3.62006 -3.8515 -13.3633 -3.65575 -3.59318 
-14.9962 -4.0171 -3.38115 -16.6832 -4.67517 -3.22089 -18.2169 -5.44955 -3.1688 
-12.4361 -4.63128 -3.90917 -13.7388 -4.60368 -3.64892 -15.4662 -4.95287 -3.48203 
-17.357 -5.72035 -3.46173 -18.9954 -6.66678 -3.50477 -20.3404 -7.55108 -3.65474 
-12.897 -5.47574 -3.84074 -14.3416 -5.51744 -3.62969 -16.1913 -6.01045 -3.52953 
-18.1649 -6.9654 -3.67525 -19.8144 -8.12867 -3.91275 -21.0469 -9.16999 -4.10007 
-22.0351 -9.93991 -4.29395 -13.627 -6.20131 -3.6591 -15.2225 -6.45867 -3.57358 
-17.1522 -7.24669 -3.60414 -19.0558 -8.44436 -3.89056 -20.5697 -9.73723 -4.32691 
-21.6553 -10.8678 -4.6234 -22.4931 -11.6895 -4.74783 -23.2286 -12.1935 -4.83609 
-9.44347 0.378653 -2.48701 -8.18378 0.650731 -2.46787 -9.21945 -0.286888 -2.82087 
-6.80258 0.735758 -2.34909 -7.91212 -0.1518 -2.80015 -9.044 -1.03655 -3.21298 
-5.48069 0.533009 -2.06939 -6.60765 -0.290548 -2.58687 -7.74339 -1.14083 -3.10179 
-9.00734 -1.88388 -3.5696 -4.3524 0.155767 -1.69841 -5.44817 -0.657518 -2.2126 
-6.57725 -1.50434 -2.77315 -7.70421 -2.1845 -3.36001 -9.26315 -2.89709 -3.82327 
-3.42637 -0.329667 -1.38383 -4.41511 -1.10782 -1.88712 -5.59245 -1.9792 -2.4554 
-6.61134 -2.69058 -3.07372 -7.944 -3.30397 -3.63678 -9.74573 -4.09409 -4.00895 
-2.73889 -0.95129 -1.11556 -3.55307 -1.66268 -1.64665 -4.69168 -2.48044 -2.23681 
-5.79032 -3.26661 -2.87967 -6.8909 -3.8846 -3.46069 -8.49052 -4.56001 -3.90838 
-10.2538 -5.25773 -4.10707 -2.32713 -1.6294 -0.796489 -3.02137 -2.30442 -1.35768 
-3.978 -3.02048 -1.94042 -5.12005 -3.79634 -2.60266 -6.21379 -4.47918 -3.23571 
-7.51863 -5.0914 -3.74698 -9.17219 -5.70815 -4.04588 -10.816 -6.11361 -4.01661 
-2.58509 -3.33472 -0.444568 -3.15073 -4.42967 -0.467597 -3.31192 -3.99467 -1.04642 
-3.89136 -5.45747 -0.454055 -3.97613 -5.08758 -1.11582 -4.21232 -4.64629 -1.64154 
-4.98472 -6.29699 -0.354357 -4.85826 -6.16091 -1.11942 -4.98782 -5.78998 -1.75643 
-5.30493 -5.3572 -2.29313 -6.44522 -6.83057 -0.317179 -6.04626 -6.99492 -0.989494 
-5.92388 -6.89002 -1.75652 -6.10479 -6.49027 -2.4088 -6.47286 -6.01108 -2.96096 
[...]
POINT_DATA 1002
FIELD FieldData 4
_paraPhi 1 1002 double
6.2831853072 3.1415926536 6.2831853072 3.1415926536 4.7123889804 4.7123889804 1.5707963268 1.5707963268 3.6951670125 
5.7296109483 2.5880182947 0.5535743589 6.2831853072 6.2831853072 6.2831853072 6.2831853072 3.1415926536 3.1415926536 
3.1415926536 3.1415926536 3.1415926536 6.1053039672 5.898798347 5.6768734901 5.4599499503 5.2659633393 5.1032165617 
4.9713148346 4.8656852733 4.7809517865 0.17788134 0.38438696014 0.60631181711 0.82323535693 1.0172219679 1.1799687454 
1.3118704726 1.4175000338 1.5022335207 6.1892828907 6.1070320098 6.035312792 5.9728339911 5.9183214791 5.8706119594 
5.8286879411 5.7916808611 5.7588591896 0.093902416448 0.17615329733 0.2478725152 0.31035131605 0.36486382811 0.41257334776 
0.45449736604 0.4915044461 0.52432611754 3.3194739936 3.5259796137 3.7479044707 3.9648280105 4.1588146215 4.321561399 
4.4534631262 4.5590926874 4.6438261743 2.9637113136 2.7572056934 2.5352808365 2.3183572967 2.1243706857 1.9616239082 
1.829722181 1.7240926197 1.6393591329 3.23549507 3.3177459509 3.3894651688 3.4519439696 3.5064564817 3.5541660013 
3.5960900196 3.6330970997 3.6659187711 3.0476902371 2.9654393563 2.8937201384 2.8312413375 2.7767288255 2.7290193058 
2.6870952876 2.6500882075 2.617266536 6.2831853072 6.2831853072 6.2831853072 6.2831853072 3.1415926536 3.1415926536 
3.1415926536 3.1415926536 3.1415926536 6.1053039672 5.898798347 5.6768734901 5.4599499503 5.2659633393 5.1032165617 
4.9713148346 4.8656852733 4.7809517865 0.17788134 0.38438696014 0.60631181711 0.82323535693 1.0172219679 1.1799687454 
1.3118704726 1.4175000338 1.5022335207 6.1892828907 6.1070320098 6.035312792 5.9728339911 5.9183214791 5.8706119594 
5.8286879411 5.7916808611 5.7588591896 0.093902416448 0.17615329733 0.2478725152 0.31035131605 0.36486382811 0.41257334776 
0.45449736604 0.4915044461 0.52432611754 3.3194739936 3.5259796137 3.7479044707 3.9648280105 4.1588146215 4.321561399 
4.4534631262 4.5590926874 4.6438261743 2.9637113136 2.7572056934 2.5352808365 2.3183572967 2.1243706857 1.9616239082 
1.829722181 1.7240926197 1.6393591329 3.23549507 3.3177459509 3.3894651688 3.4519439696 3.5064564817 3.5541660013 
3.5960900196 3.6330970997 3.6659187711 3.0476902371 2.9654393563 2.8937201384 2.8312413375 2.7767288255 2.7290193058 
2.6870952876 2.6500882075 2.617266536 4.7123889804 4.7123889804 4.7123889804 4.7123889804 4.7123889804 4.7123889804 
4.7123889804 4.7123889804 4.7123889804 4.6087898617 4.4991390697 4.3857031936 4.2712800401 4.1588146215 4.0509635631 
3.94975894 3.8564636551 3.7716124825 4.8159880991 4.9256388911 5.0390747672 5.1534979207 5.2659633393 5.3738143976 
5.4750190208 5.5683143056 5.6531654782 4.6087898617 4.4991390697 4.3857031936 4.2712800401 4.1588146215 4.0509635631 
3.94975894 3.8564636551 3.7716124825 4.8159880991 4.9256388911 5.0390747672 5.1534979207 5.2659633393 5.3738143976 
5.4750190208 5.5683143056 5.6531654782 1.5707963268 1.5707963268 1.5707963268 1.5707963268 1.5707963268 1.5707963268 
1.5707963268 1.5707963268 1.5707963268 1.6743954455 1.7840462375 1.8974821136 2.0119052671 2.1243706857 2.232221744 
2.3334263672 2.426721652 2.5115728246 1.4671972081 1.3575464161 1.24411054 1.1296873865 1.0172219679 0.90937090954 
0.80816628637 0.71487100155 0.63001982895 1.6743954455 1.7840462375 1.8974821136 2.0119052671 2.1243706857 2.232221744 
2.3334263672 2.426721652 2.5115728246 1.4671972081 1.3575464161 1.24411054 1.1296873865 1.0172219679 0.90937090954 
0.80816628637 0.71487100155 0.63001982895 3.6007720849 3.4966939854 3.3839471039 3.2645756454 3.1415926536 3.0186096618 
2.8992382033 2.7864913217 2.6824132222 5.8240058758 5.9280839753 6.0408308569 6.1602023154 6.2831853072 0.12298299178 
0.2423544503 0.35510133185 0.45917943135 6.0560271438 5.7885595667 5.9702140275 5.5125918794 5.6029703303 5.7885595667 
5.2659633393 5.2659633393 5.2659633393 5.2659633393 5.0674903122 5.0120975802 4.9155579264 4.7123889804 4.1588146215 
4.9155579264 4.8353719722 4.7123889804 4.5092200343 4.1588146215 3.6362183941 4.8004512023 4.7123889804 4.5894059886 
4.4126803806 4.1588146215 3.8218076305 3.4545639333 4.7123889804 4.6243267584 4.5092200343 4.3572876485 4.1588146215 
3.9121860814 3.6362183941 3.368750817 6.0174235957 5.9434319871 5.8263323547 5.8809213739 5.7674481418 5.6279784266 
5.8278025282 5.718968232 5.5891129425 5.4372443565 5.7823484065 5.678536687 5.5575666702 5.4192596322 5.2659633393 
5.743164462 5.6444075337 5.5314983644 5.4046708639 5.2659633393 5.1195510325 5.7091357773 5.6152775188 5.5096229709 
5.3926039573 5.2659633393 5.1329233157 4.9978930058 5.6793730533 5.5901633916 5.4910209005 5.3824597928 5.2659633393 
5.1440684722 5.0201624502 4.8979782167 5.5683143056 5.4750190208 5.4750190208 5.3738143976 5.3738143976 5.3738143976 
5.2659633393 5.2659633393 5.2659633393 5.2659633393 5.1534979207 5.1534979207 5.1534979207 5.1534979207 5.1534979207 
5.0390747672 5.0390747672 5.0390747672 5.0390747672 5.0390747672 5.0390747672 4.9256388911 4.9256388911 4.9256388911 
4.9256388911 4.9256388911 4.9256388911 4.9256388911 4.8159880991 4.8159880991 4.8159880991 4.8159880991 4.8159880991 
4.8159880991 4.8159880991 4.8159880991 4.6087898617 4.6087898617 4.4991390697 4.6087898617 4.4991390697 4.3857031936 
4.6087898617 4.4991390697 4.3857031936 4.2712800401 4.6087898617 4.4991390697 4.3857031936 4.2712800401 4.1588146215 
4.6087898617 4.4991390697 4.3857031936 4.2712800401 4.1588146215 4.0509635631 4.6087898617 4.4991390697 4.3857031936 
4.2712800401 4.1588146215 4.0509635631 3.94975894 4.6087898617 4.4991390697 4.3857031936 4.2712800401 4.1588146215 
4.0509635631 3.94975894 3.8564636551 4.526799744 4.4046155105 4.426884955 4.2807094886 4.2918546451 4.3052269283 
4.1588146215 4.1588146215 4.1588146215 4.1588146215 4.042318168 4.0321740035 4.0201070968 4.0055183285 3.9875336042 
3.9337570603 3.9151549899 3.8932795963 3.8672112905 3.8356650183 3.7967995342 3.8346145692 3.809500442 3.7803704271 
3.7462412737 3.7058097288 3.657329819 3.5984456061 3.7454049075 3.7156421835 3.6816134988 3.6424295543 3.5969754326 
3.5438565869 3.4813459737 3.4073543651 3.5642842451 3.4524645613 3.5233842518 3.3320300872 3.403123212 3.4773852225 
3.20576226 3.2746326772 3.348015857 3.4255060145 3.0774230472 3.1415926536 3.2112816139 3.2864685043 3.3668817272 
2.95115522 3.00855263 3.0719036933 3.1415926536 3.2178377658 3.3005964304 2.8307207459 2.8800620952 2.9351694502 
2.9967168029 3.0653475414 3.1415926536 3.225752376 2.718901062 2.7598010554 2.8058000847 2.8576792927 2.91630358 
2.9825888767 3.0574329311 3.1415926536 3.5642842451 3.5233842518 3.4524645613 3.4773852225 3.403123212 3.3320300872 
3.4255060145 3.348015857 3.2746326772 3.20576226 3.3668817272 3.2864685043 3.2112816139 3.1415926536 3.0774230472 
3.3005964304 3.2178377658 3.1415926536 3.0719036933 3.00855263 2.95115522 3.225752376 3.1415926536 3.0653475414 
2.9967168029 2.9351694502 2.8800620952 2.8307207459 3.1415926536 3.0574329311 2.9825888767 2.91630358 2.8576792927 
2.8058000847 2.7598010554 2.718901062 4.526799744 4.426884955 4.4046155105 4.3052269283 4.2918546451 4.2807094886 
4.1588146215 4.1588146215 4.1588146215 4.1588146215 3.9875336042 4.0055183285 4.0201070968 4.0321740035 4.042318168 
3.7967995342 3.8356650183 3.8672112905 3.8932795963 3.9151549899 3.9337570603 3.5984456061 3.657329819 3.7058097288 
3.7462412737 3.7803704271 3.809500442 3.8346145692 3.4073543651 3.4813459737 3.5438565869 3.5969754326 3.6424295543 
3.6816134988 3.7156421835 3.7454049075 4.7123889804 4.8004512023 4.6243267584 4.9155579264 4.7123889804 4.5092200343 
5.0674903122 4.8353719722 4.5894059886 4.3572876485 5.2659633393 5.0120975802 4.7123889804 4.4126803806 4.1588146215 
5.5125918794 5.2659633393 4.9155579264 4.5092200343 4.1588146215 3.9121860814 5.7885595667 5.6029703303 5.2659633393 
4.7123889804 4.1588146215 3.8218076305 3.6362183941 6.0560271438 5.9702140275 5.7885595667 5.2659633393 4.1588146215 
3.6362183941 3.4545639333 3.368750817 0.22715816343 0.49462574053 0.3129712797 0.77059342779 0.68021497688 0.49462574053 
1.0172219679 1.0172219679 1.0172219679 1.0172219679 1.2156949949 1.271087727 1.3676273807 1.5707963268 2.1243706857 
1.3676273807 1.447813335 1.5707963268 1.7739652728 2.1243706857 2.6469669131 1.4827341049 1.5707963268 1.6937793186 
1.8705049266 2.1243706857 2.4613776767 2.8286213739 1.5707963268 1.6588585487 1.7739652728 1.9258976586 2.1243706857 
2.3709992258 2.6469669131 2.9144344902 1.7563855631 1.8785697967 1.8563003522 2.0024758186 1.9913306621 1.9779583789 
2.1243706857 2.1243706857 2.1243706857 2.1243706857 2.2408671392 2.2510113037 2.2630782103 2.2776669786 2.295651703 
2.3494282469 2.3680303173 2.3899057108 2.4159740166 2.4475202889 2.486385773 2.448570738 2.4736848652 2.5028148801 
2.5369440334 2.5773755784 2.6258554882 2.6847397011 2.5377803997 2.5675431237 2.6015718084 2.6407557529 2.6862098746 
2.7393287203 2.8018393335 2.8758309421 1.6743954455 1.6743954455 1.7840462375 1.6743954455 1.7840462375 1.8974821136 
1.6743954455 1.7840462375 1.8974821136 2.0119052671 1.6743954455 1.7840462375 1.8974821136 2.0119052671 2.1243706857 
1.6743954455 1.7840462375 1.8974821136 2.0119052671 2.1243706857 2.232221744 1.6743954455 1.7840462375 1.8974821136 
2.0119052671 2.1243706857 2.232221744 2.3334263672 1.6743954455 1.7840462375 1.8974821136 2.0119052671 2.1243706857 
2.232221744 2.3334263672 2.426721652 1.4671972081 1.3575464161 1.4671972081 1.24411054 1.3575464161 1.4671972081 
1.1296873865 1.24411054 1.3575464161 1.4671972081 1.0172219679 1.1296873865 1.24411054 1.3575464161 1.4671972081 
0.90937090954 1.0172219679 1.1296873865 1.24411054 1.3575464161 1.4671972081 0.80816628637 0.90937090954 1.0172219679 
1.1296873865 1.24411054 1.3575464161 1.4671972081 0.71487100155 0.80816628637 0.90937090954 1.0172219679 1.1296873865 
1.24411054 1.3575464161 1.4671972081 0.60381225391 0.57404952988 0.69302191562 0.54002084522 0.66790778838 0.79216440667 
0.50083690068 0.63877777351 0.77356233629 0.90072551443 0.45538277901 0.60464862014 0.75168694275 0.89058134991 1.0172219679 
0.40226393329 0.56421707518 0.72561863695 0.87851444325 1.0172219679 1.139116835 0.33975332011 0.51573716537 0.69407236469 
0.86392567495 1.0172219679 1.1502619915 1.2630228569 0.26576171152 0.45685295248 0.6552068806 0.84594095064 1.0172219679 
1.1636342747 1.2852923014 1.3852070904 0.22715816343 0.3129712797 0.49462574053 0.49462574053 0.68021497688 0.77059342779 
1.0172219679 1.0172219679 1.0172219679 1.0172219679 2.1243706857 1.5707963268 1.3676273807 1.271087727 1.2156949949 
2.6469669131 2.1243706857 1.7739652728 1.5707963268 1.447813335 1.3676273807 2.8286213739 2.4613776767 2.1243706857 
1.8705049266 1.6937793186 1.5707963268 1.4827341049 2.9144344902 2.6469669131 2.3709992258 2.1243706857 1.9258976586 
1.7739652728 1.6588585487 1.5707963268 1.7563855631 1.8563003522 1.8785697967 1.9779583789 1.9913306621 2.0024758186 
2.1243706857 2.1243706857 2.1243706857 2.1243706857 2.295651703 2.2776669786 2.2630782103 2.2510113037 2.2408671392 
2.486385773 2.4475202889 2.4159740166 2.3899057108 2.3680303173 2.3494282469 2.6847397011 2.6258554882 2.5773755784 
2.5369440334 2.5028148801 2.4736848652 2.448570738 2.8758309421 2.8018393335 2.7393287203 2.6862098746 2.6407557529 
2.6015718084 2.5675431237 2.5377803997 5.8604937156 5.901393709 5.9723133995 5.9473927383 6.0216547488 6.0927478736 
5.9992719463 6.0767621038 6.1501452836 6.2190157008 6.0578962336 6.1383094565 6.2134963469 0 0.064169606361 
6.1241815303 6.206940195 6.2831853072 0.069688960264 0.13304002361 0.19043743361 6.1990255847 0 0.07624511221 
0.14487585072 0.20642320337 0.26153055843 0.3108719077 0 0.084159722458 0.15900377685 0.22528907359 0.28391336087 
0.3357925689 0.38179159818 0.42269159155 5.8604937156 5.9723133995 5.901393709 6.0927478736 6.0216547488 5.9473927383 
6.2190157008 6.1501452836 6.0767621038 5.9992719463 0.064169606361 0 6.2134963469 6.1383094565 6.0578962336 
0.19043743361 0.13304002361 0.069688960264 6.2831853072 6.206940195 6.1241815303 0.3108719077 0.26153055843 0.20642320337 
0.14487585072 0.07624511221 6.2831853072 6.1990255847 0.42269159155 0.38179159818 0.3357925689 0.28391336087 0.22528907359 
0.15900377685 0.084159722458 0 5.6793730533 5.7091357773 5.5901633916 5.743164462 5.6152775188 5.4910209005 
5.7823484065 5.6444075337 5.5096229709 5.3824597928 5.8278025282 5.678536687 5.5314983644 5.3926039573 5.2659633393 
5.8809213739 5.718968232 5.5575666702 5.4046708639 5.2659633393 5.1440684722 5.9434319871 5.7674481418 5.5891129425 
5.4192596322 5.2659633393 5.1329233157 5.0201624502 6.0174235957 5.8263323547 5.6279784266 5.4372443565 5.2659633393 
5.1195510325 4.9978930058 4.8979782167 1.3852070904 1.2852923014 1.2630228569 1.1636342747 1.1502619915 1.139116835 
1.0172219679 1.0172219679 1.0172219679 1.0172219679 0.84594095064 0.86392567495 0.87851444325 0.89058134991 0.90072551443 
0.6552068806 0.69407236469 0.72561863695 0.75168694275 0.77356233629 0.79216440667 0.45685295248 0.51573716537 0.56421707518 
0.60464862014 0.63877777351 0.66790778838 0.69302191562 0.26576171152 0.33975332011 0.40226393329 0.45538277901 0.50083690068 
0.54002084522 0.57404952988 0.60381225391 
_paraPhiHalf 1 1002 double
0 3.1415926536 0 3.1415926536 1.5707963268 1.5707963268 1.5707963268 1.5707963268 2.5880182947 
0.5535743589 2.5880182947 0.5535743589 0 0 0 0 3.1415926536 3.1415926536 
3.1415926536 3.1415926536 3.1415926536 0.17788134 0.38438696014 0.60631181711 0.82323535693 1.0172219679 1.1799687454 
1.3118704726 1.4175000338 1.5022335207 0.17788134 0.38438696014 0.60631181711 0.82323535693 1.0172219679 1.1799687454 
1.3118704726 1.4175000338 1.5022335207 0.093902416448 0.17615329733 0.2478725152 0.31035131605 0.36486382811 0.41257334776 
0.45449736604 0.4915044461 0.52432611754 0.093902416448 0.17615329733 0.2478725152 0.31035131605 0.36486382811 0.41257334776 
0.45449736604 0.4915044461 0.52432611754 2.9637113136 2.7572056934 2.5352808365 2.3183572967 2.1243706857 1.9616239082 
1.829722181 1.7240926197 1.6393591329 2.9637113136 2.7572056934 2.5352808365 2.3183572967 2.1243706857 1.9616239082 
1.829722181 1.7240926197 1.6393591329 3.0476902371 2.9654393563 2.8937201384 2.8312413375 2.7767288255 2.7290193058 
2.6870952876 2.6500882075 2.617266536 3.0476902371 2.9654393563 2.8937201384 2.8312413375 2.7767288255 2.7290193058 
2.6870952876 2.6500882075 2.617266536 0 0 0 0 3.1415926536 3.1415926536 
3.1415926536 3.1415926536 3.1415926536 0.17788134 0.38438696014 0.60631181711 0.82323535693 1.0172219679 1.1799687454 
1.3118704726 1.4175000338 1.5022335207 0.17788134 0.38438696014 0.60631181711 0.82323535693 1.0172219679 1.1799687454 
1.3118704726 1.4175000338 1.5022335207 0.093902416448 0.17615329733 0.2478725152 0.31035131605 0.36486382811 0.41257334776 
0.45449736604 0.4915044461 0.52432611754 0.093902416448 0.17615329733 0.2478725152 0.31035131605 0.36486382811 0.41257334776 
0.45449736604 0.4915044461 0.52432611754 2.9637113136 2.7572056934 2.5352808365 2.3183572967 2.1243706857 1.9616239082 
1.829722181 1.7240926197 1.6393591329 2.9637113136 2.7572056934 2.5352808365 2.3183572967 2.1243706857 1.9616239082 
1.829722181 1.7240926197 1.6393591329 3.0476902371 2.9654393563 2.8937201384 2.8312413375 2.7767288255 2.7290193058 
2.6870952876 2.6500882075 2.617266536 3.0476902371 2.9654393563 2.8937201384 2.8312413375 2.7767288255 2.7290193058 
2.6870952876 2.6500882075 2.617266536 1.5707963268 1.5707963268 1.5707963268 1.5707963268 1.5707963268 1.5707963268 
1.5707963268 1.5707963268 1.5707963268 1.6743954455 1.7840462375 1.8974821136 2.0119052671 2.1243706857 2.232221744 
2.3334263672 2.426721652 2.5115728246 1.4671972081 1.3575464161 1.24411054 1.1296873865 1.0172219679 0.90937090954 
0.80816628637 0.71487100155 0.63001982895 1.6743954455 1.7840462375 1.8974821136 2.0119052671 2.1243706857 2.232221744 
2.3334263672 2.426721652 2.5115728246 1.4671972081 1.3575464161 1.24411054 1.1296873865 1.0172219679 0.90937090954 
0.80816628637 0.71487100155 0.63001982895 1.5707963268 1.5707963268 1.5707963268 1.5707963268 1.5707963268 1.5707963268 
1.5707963268 1.5707963268 1.5707963268 1.6743954455 1.7840462375 1.8974821136 2.0119052671 2.1243706857 2.232221744 
2.3334263672 2.426721652 2.5115728246 1.4671972081 1.3575464161 1.24411054 1.1296873865 1.0172219679 0.90937090954 
0.80816628637 0.71487100155 0.63001982895 1.6743954455 1.7840462375 1.8974821136 2.0119052671 2.1243706857 2.232221744 
2.3334263672 2.426721652 2.5115728246 1.4671972081 1.3575464161 1.24411054 1.1296873865 1.0172219679 0.90937090954 
0.80816628637 0.71487100155 0.63001982895 2.6824132222 2.7864913217 2.8992382033 3.0186096618 3.1415926536 3.0186096618 
2.8992382033 2.7864913217 2.6824132222 0.45917943135 0.35510133185 0.2423544503 0.12298299178 0 0.12298299178 
0.2423544503 0.35510133185 0.45917943135 0.22715816343 0.49462574053 0.3129712797 0.77059342779 0.68021497688 0.49462574053 
1.0172219679 1.0172219679 1.0172219679 1.0172219679 1.2156949949 1.271087727 1.3676273807 1.5707963268 2.1243706857 
1.3676273807 1.447813335 1.5707963268 1.7739652728 2.1243706857 2.6469669131 1.4827341049 1.5707963268 1.6937793186 
1.8705049266 2.1243706857 2.4613776767 2.8286213739 1.5707963268 1.6588585487 1.7739652728 1.9258976586 2.1243706857 
2.3709992258 2.6469669131 2.9144344902 0.26576171152 0.33975332011 0.45685295248 0.40226393329 0.51573716537 0.6552068806 
0.45538277901 0.56421707518 0.69407236469 0.84594095064 0.50083690068 0.60464862014 0.72561863695 0.86392567495 1.0172219679 
0.54002084522 0.63877777351 0.75168694275 0.87851444325 1.0172219679 1.1636342747 0.57404952988 0.66790778838 0.77356233629 
0.89058134991 1.0172219679 1.1502619915 1.2852923014 0.60381225391 0.69302191562 0.79216440667 0.90072551443 1.0172219679 
1.139116835 1.2630228569 1.3852070904 0.71487100155 0.80816628637 0.80816628637 0.90937090954 0.90937090954 0.90937090954 
1.0172219679 1.0172219679 1.0172219679 1.0172219679 1.1296873865 1.1296873865 1.1296873865 1.1296873865 1.1296873865 
1.24411054 1.24411054 1.24411054 1.24411054 1.24411054 1.24411054 1.3575464161 1.3575464161 1.3575464161 
1.3575464161 1.3575464161 1.3575464161 1.3575464161 1.4671972081 1.4671972081 1.4671972081 1.4671972081 1.4671972081 
1.4671972081 1.4671972081 1.4671972081 1.6743954455 1.6743954455 1.7840462375 1.6743954455 1.7840462375 1.8974821136 
1.6743954455 1.7840462375 1.8974821136 2.0119052671 1.6743954455 1.7840462375 1.8974821136 2.0119052671 2.1243706857 
1.6743954455 1.7840462375 1.8974821136 2.0119052671 2.1243706857 2.232221744 1.6743954455 1.7840462375 1.8974821136 
2.0119052671 2.1243706857 2.232221744 2.3334263672 1.6743954455 1.7840462375 1.8974821136 2.0119052671 2.1243706857 
2.232221744 2.3334263672 2.426721652 1.7563855631 1.8785697967 1.8563003522 2.0024758186 1.9913306621 1.9779583789 
2.1243706857 2.1243706857 2.1243706857 2.1243706857 2.2408671392 2.2510113037 2.2630782103 2.2776669786 2.295651703 
2.3494282469 2.3680303173 2.3899057108 2.4159740166 2.4475202889 2.486385773 2.448570738 2.4736848652 2.5028148801 
2.5369440334 2.5773755784 2.6258554882 2.6847397011 2.5377803997 2.5675431237 2.6015718084 2.6407557529 2.6862098746 
2.7393287203 2.8018393335 2.8758309421 2.718901062 2.8307207459 2.7598010554 2.95115522 2.8800620952 2.8058000847 
3.0774230472 3.00855263 2.9351694502 2.8576792927 3.0774230472 3.1415926536 3.0719036933 2.9967168029 2.91630358 
2.95115522 3.00855263 3.0719036933 3.1415926536 3.0653475414 2.9825888767 2.8307207459 2.8800620952 2.9351694502 
2.9967168029 3.0653475414 3.1415926536 3.0574329311 2.718901062 2.7598010554 2.8058000847 2.8576792927 2.91630358 
2.9825888767 3.0574329311 3.1415926536 2.718901062 2.7598010554 2.8307207459 2.8058000847 2.8800620952 2.95115522 
2.8576792927 2.9351694502 3.00855263 3.0774230472 2.91630358 2.9967168029 3.0719036933 3.1415926536 3.0774230472 
2.9825888767 3.0653475414 3.1415926536 3.0719036933 3.00855263 2.95115522 3.0574329311 3.1415926536 3.0653475414 