# vtk DataFile Version 5.1
vtk output
ASCII
DATASET POLYDATA
POINTS 100 float
-3.87561 4.38909 1.25286 -3.88178 4.3815 1.24904 -3.90039 4.35733 1.2418 
-3.93174 4.31733 1.23196 -3.97626 4.26258 1.22073 -4.03431 4.19431 1.20959 
-4.10616 4.11362 1.20005 -4.19175 4.02131 1.1935 -4.29074 3.91777 1.19102 
-4.4024 3.80293 1.19328 -4.52573 3.67639 1.20045 -4.65952 3.5376 1.21227 
-4.80251 3.38609 1.22807 -4.95352 3.22165 1.24688 -5.1116 3.04453 1.26762 
-5.27613 2.85547 1.28916 -5.44681 2.65566 1.31049 -5.62372 2.4466 1.33079 
-5.80716 2.22986 1.34946 -5.99763 2.00691 1.36613 -6.19568 1.77888 1.3806 
-6.4018 1.54649 1.39284 -6.61639 1.31 1.40287 -6.83969 1.06936 1.41075 
-7.07183 0.824294 1.41651 -7.31281 0.574564 1.42017 -7.5626 0.320098 1.42171 
-7.82119 0.0611156 1.42109 -8.08856 -0.201853 1.4183 -8.36477 -0.468048 1.41336 
-8.64986 -0.736631 1.40634 -8.94385 -1.00688 1.39737 -9.24669 -1.27833 1.38665 
-9.55822 -1.55095 1.37441 -9.87817 -1.82506 1.36091 -10.2062 -2.10131 1.34646 
-10.5419 -2.38043 1.33133 -10.8852 -2.66307 1.31583 -11.2358 -2.94949 1.30026 
-11.594 -3.23955 1.28491 -11.9602 -3.5326 1.27001 -12.3352 -3.82771 1.25576 
-12.7198 -4.12398 1.2422 -13.1148 -4.42088 1.22917 -13.5208 -4.71875 1.21626 
-13.9376 -5.01909 1.20271 -14.3648 -5.3248 1.18742 -14.8006 -5.64011 1.16895 
-15.2427 -5.97035 1.14557 -15.6876 -6.3214 1.11546 -16.1315 -6.69907 1.07686 
-16.5699 -7.10838 1.02828 -16.9982 -7.55287 0.968779 -17.4123 -8.03422 0.898125 
-17.8084 -8.55193 0.816953 -18.1836 -9.10351 0.726797 -18.5358 -9.68482 0.630008 
-18.8639 -10.2907 0.529568 -19.1676 -10.9156 0.428789 -19.4472 -11.5545 0.330955 
-19.7035 -12.2032 0.238936 -19.9372 -12.859 0.154842 -20.1491 -13.5204 0.0797581 
-20.34 -14.1869 0.013612 -20.51 -14.859 -0.044813 -20.6593 -15.5371 -0.0977076 
-20.7879 -16.2211 -0.147938 -20.8955 -16.9102 -0.198662 -20.9822 -17.602 -0.252913 
-21.0483 -18.2933 -0.313216 -21.0945 -18.98 -0.3813 -21.1216 -19.6571 -0.457938 
-21.1313 -20.3202 -0.542936 -21.1252 -20.9652 -0.635275 -21.1054 -21.5892 -0.733366 
-21.0742 -22.1905 -0.835363 -21.0338 -22.7689 -0.939487 -20.9865 -23.3251 -1.04429 
-20.9345 -23.8605 -1.14882 -20.8799 -24.3769 -1.25264 -20.8247 -24.8755 -1.3557 
-20.771 -25.3571 -1.45815 -20.7207 -25.8214 -1.56003 -20.6756 -26.2673 -1.66097 
-20.6373 -26.6928 -1.76001 -20.6075 -27.0955 -1.85546 -20.5872 -27.4727 -1.94493 
-20.5772 -27.8222 -2.02559 -20.5779 -28.1422 -2.09449 -20.5889 -28.4315 -2.149 
-20.6094 -28.6899 -2.18723 -20.6377 -28.9177 -2.20848 -20.6718 -29.1157 -2.21341 
-20.7092 -29.285 -2.20418 -20.7472 -29.4265 -2.18424 -20.7831 -29.5412 -2.15801 
-20.814 -29.6297 -2.13032 -20.8378 -29.6925 -2.10585 -20.8527 -29.7298 -2.08848 
-20.8575 -29.7417 -2.0808 
LINES 2 100
OFFSETS vtktypeint64
0 100 
CONNECTIVITY vtktypeint64
0 1 2 3 4 5 6 7 8 
9 10 11 12 13 14 15 16 17 
18 19 20 21 22 23 24 25 26 
27 28 29 30 31 32 33 34 35 
36 37 38 39 40 41 42 43 44 
45 46 47 48 49 50 51 52 53 
54 55 56 57 58 59 60 61 62 
63 64 65 66 67 68 69 70 71 
72 73 74 75 76 77 78 79 80 
81 82 83 84 85 86 87 88 89 
90 91 92 93 94 95 96 97 98 
99 
POINT_DATA 100
FIELD FieldData 3
_theta 1 100 double
0 0.031733259127 0.063466518254 0.095199777382 0.12693303651 0.15866629564 0.19039955476 0.22213281389 0.25386607302 
0.28559933214 0.31733259127 0.3490658504 0.38079910953 0.41253236865 0.44426562778 0.47599888691 0.50773214603 0.53946540516 
0.57119866429 0.60293192342 0.63466518254 0.66639844167 0.6981317008 0.72986495992 0.76159821905 0.79333147818 0.82506473731 
0.85679799643 0.88853125556 0.92026451469 0.95199777382 0.98373103294 1.0154642921 1.0471975512 1.0789308103 1.1106640695 
1.1423973286 1.1741305877 1.2058638468 1.237597106 1.2693303651 1.3010636242 1.3327968833 1.3645301425 1.3962634016 
1.4279966607 1.4597299198 1.491463179 1.5231964381 1.5549296972 1.5866629564 1.6183962155 1.6501294746 1.6818627337 
1.7135959929 1.745329252 1.7770625111 1.8087957702 1.8405290294 1.8722622885 1.9039955476 1.9357288068 1.9674620659 
1.999195325 2.0309285841 2.0626618433 2.0943951024 2.1261283615 2.1578616206 2.1895948798 2.2213281389 2.253061398 
2.2847946572 2.3165279163 2.3482611754 2.3799944345 2.4117276937 2.4434609528 2.4751942119 2.506927471 2.5386607302 
2.5703939893 2.6021272484 2.6338605076 2.6655937667 2.6973270258 2.7290602849 2.7607935441 2.7925268032 2.8242600623 
2.8559933214 2.8877265806 2.9194598397 2.9511930988 2.982926358 3.0146596171 3.0463928762 3.0781261353 3.1098593945 
3.1415926536 
_radius 1 100 double
7.4740359145e-15 0.27434954657 0.5478568287 0.81984544495 1.0899003233 1.3577788396 1.6231834634 1.8854945245 2.1435877777 
2.3958259053 2.6402357297 2.8748062573 3.097803709 3.3080090283 3.5048257813 3.6882558167 3.858775268 4.0171564788 
4.164277223 4.3009482069 4.4277815411 4.5451176294 4.653021531 4.7513486558 4.839864621 4.9183904691 4.9869379471 
5.045802614 5.0955931045 5.1371884593 5.1716284554 5.1999531198 5.2230169555 5.2413096554 5.254815801 5.2629396743 
5.2645092745 5.2578600634 5.240988235 5.211757577 5.1681423974 5.1084883564 5.0317697831 4.9378150007 4.8274639988 
4.7026229931 4.5661941489 4.4218853113 4.2739349316 4.126807521 3.9849131286 3.8523795694 3.7328715877 3.6294266014 
3.5442771914 3.4786607731 3.4326671846 3.4052140115 3.3942233537 3.3969899091 3.4106334004 3.4324920955 3.4603509168 
3.4924672196 3.5274266495 3.5639154009 3.6005172685 3.6356216498 3.667472029 3.6943238553 3.7146450264 3.727290842 
3.731608528 3.727457214 3.7151537285 3.6953655034 3.6689688759 3.6368811045 3.5998688998 3.5583429259 3.512163858 
3.4604999826 3.4017774712 3.3337487226 3.253678289 3.1586216229 3.0457571546 2.9127271993 2.7579431511 2.5808111673 
2.3818368739 2.162578314 1.9254426641 1.6733623255 1.4094246051 1.1365455028 0.85726022995 0.57365724049 0.28743118711 
4.3425442132e-14 
_area 1 100 double
0 0.2201336717 0.87630639515 1.9564338078 3.4420716408 5.3100148818 7.533091709 10.079666057 12.912225197 
15.986266457 19.250899822 22.651897549 26.136724956 29.660082912 33.188173769 36.700301662 40.18725972 43.646869017 
47.077644011 50.471787187 53.808992035 57.053041343 60.153170288 63.050837792 65.690286742 68.029376283 70.046854624 
71.7438219 73.139753086 74.265613269 75.157175722 75.8505459 76.379902059 76.775725987 77.06129973 77.246483608 
77.320448318 77.247565607 76.970481902 76.420210438 75.528033732 74.233973884 72.4926656 70.282109382 67.616543773 
64.556539793 61.208252096 57.710505196 54.215117156 50.865794686 47.776405443 45.014365532 42.604487421 40.550620552 
38.854572575 37.523963017 36.569368746 35.991440048 35.765531275 35.837611644 36.136061352 36.58912703 37.136123425 
37.728945066 38.327418382 38.893907453 39.391027771 39.783583223 40.043429057 40.154518549 40.115135354 39.935410689 
39.630534247 39.212804931 38.68728749 38.054188677 37.316103998 36.484352843 35.579334072 34.62383918 33.632375977 
32.601535347 31.505616082 30.299316299 28.926921915 27.335605314 25.489159729 23.378211949 21.024282354 18.47750154 
15.809918294 13.107115887 10.460301806 7.9598734167 5.6905091095 3.7275038472 2.1341926304 0.9604208253 0.24188776823 
2.8310899091e-13 
