# vtk DataFile Version 5.1
vtk output
ASCII
DATASET POLYDATA
POINTS 100 float
-3.95311 4.73295 1.44386 -3.95857 4.72672 1.43647 -3.9759 4.70598 1.41853 
-4.00571 4.67099 1.39157 -4.04884 4.62209 1.35793 -4.10616 4.55963 1.32045 
-4.17843 4.48389 1.28209 -4.26608 4.39498 1.24556 -4.36916 4.29279 1.21303 
-4.48729 4.17705 1.18589 -4.61971 4.04732 1.16466 -4.76544 3.90316 1.14897 
-4.92344 3.74421 1.13772 -5.09278 3.57037 1.12927 -5.27277 3.38188 1.12169 
-5.46307 3.17945 1.11303 -5.66362 2.9642 1.10154 -5.87464 2.73767 1.08583 
-6.09645 2.50172 1.06496 -6.32934 2.25833 1.0385 -6.57341 2.00948 1.00646 
-6.82852 1.75696 0.969216 -7.09423 1.50225 0.927396 -7.36987 1.24643 0.881782 
-7.65463 0.990114 0.833183 -7.94769 0.733541 0.782342 -8.24837 0.476606 0.729859 
-8.55624 0.219001 0.676129 -8.87114 -0.039662 0.621304 -9.19317 -0.299714 0.565272 
-9.52261 -0.561327 0.507655 -9.85979 -0.824444 0.447846 -10.205 -1.08875 0.385058 
-10.5584 -1.35369 0.31842 -10.9199 -1.61853 0.247085 -11.2893 -1.88245 0.170366 
-11.6666 -2.14466 0.0878581 -12.0518 -2.40453 -0.000454615 -12.4452 -2.6617 -0.0941465 
-12.8478 -2.91626 -0.192361 -13.261 -3.16878 -0.293898 -13.6866 -3.42049 -0.397379 
-14.1267 -3.67325 -0.501473 -14.5832 -3.92964 -0.605144 -15.0575 -4.1929 -0.707896 
-15.5499 -4.46684 -0.809963 -16.0597 -4.75567 -0.9124 -16.5843 -5.06386 -1.01706 
-17.1199 -5.39578 -1.12645 -17.661 -5.75548 -1.24342 -18.2012 -6.14633 -1.37087 
-18.7337 -6.57076 -1.51131 -19.2518 -7.02999 -1.66648 -19.7496 -7.52388 -1.83712 
-20.2224 -8.05088 -2.02277 -20.6671 -8.60811 -2.22181 -21.0825 -9.19156 -2.43158 
-21.469 -9.79634 -2.64877 -21.8283 -10.4172 -2.86974 -22.1631 -11.0487 -3.09104 
-22.4762 -11.6859 -3.30977 -22.7706 -12.3245 -3.52396 -23.0483 -12.9614 -3.73271 
-23.3108 -13.5943 -3.93625 -23.5583 -14.2222 -4.13582 -23.7904 -14.8452 -4.33337 
-24.0058 -15.4639 -4.53124 -24.203 -16.0794 -4.73178 -24.3805 -16.6929 -4.93697 
-24.5373 -17.3054 -5.14818 -24.673 -17.9173 -5.36599 -24.7878 -18.5283 -5.59013 
-24.8828 -19.1375 -5.81958 -24.9597 -19.7432 -6.05271 -25.0207 -20.3431 -6.28752 
-25.0683 -20.9346 -6.52188 -25.1048 -21.515 -6.75373 -25.1325 -22.0817 -6.98126 
-25.1535 -22.6324 -7.203 -25.1694 -23.1652 -7.41787 -25.1817 -23.6788 -7.6251 
-25.1917 -24.1723 -7.82422 -25.2006 -24.6452 -8.01492 -25.2096 -25.0973 -8.19696 
-25.2198 -25.5285 -8.37012 -25.2326 -25.9387 -8.53411 -25.249 -26.3275 -8.68862 
-25.27 -26.6945 -8.83323 -25.2964 -27.0387 -8.96751 -25.3283 -27.3591 -9.09105 
-25.3655 -27.6543 -9.20342 -25.4071 -27.923 -9.30428 -25.4516 -28.1636 -9.39334 
-25.4971 -28.3748 -9.47038 -25.5413 -28.5553 -9.53524 -25.5819 -28.7041 -9.58783 
-25.6163 -28.8204 -9.62809 -25.6425 -28.9036 -9.656 -25.6588 -28.9533 -9.67159 
-25.6641 -28.9695 -9.67491 
LINES 2 100
OFFSETS vtktypeint64
0 100 
CONNECTIVITY vtktypeint64
0 1 2 3 4 5 6 7 8 
9 10 11 12 13 14 15 16 17 
18 19 20 21 22 23 24 25 26 
27 28 29 30 31 32 33 34 35 
36 37 38 39 40 41 42 43 44 
45 46 47 48 49 50 51 52 53 
54 55 56 57 58 59 60 61 62 
63 64 65 66 67 68 69 70 71 
72 73 74 75 76 77 78 79 80 
81 82 83 84 85 86 87 88 89 
90 91 92 93 94 95 96 97 98 
99 
POINT_DATA 100
FIELD FieldData 3
_theta 1 100 double
0 0.031733259127 0.063466518254 0.095199777382 0.12693303651 0.15866629564 0.19039955476 0.22213281389 0.25386607302 
0.28559933214 0.31733259127 0.3490658504 0.38079910953 0.41253236865 0.44426562778 0.47599888691 0.50773214603 0.53946540516 
0.57119866429 0.60293192342 0.63466518254 0.66639844167 0.6981317008 0.72986495992 0.76159821905 0.79333147818 0.82506473731 
0.85679799643 0.88853125556 0.92026451469 0.95199777382 0.98373103294 1.0154642921 1.0471975512 1.0789308103 1.1106640695 
1.1423973286 1.1741305877 1.2058638468 1.237597106 1.2693303651 1.3010636242 1.3327968833 1.3645301425 1.3962634016 
1.4279966607 1.4597299198 1.491463179 1.5231964381 1.5549296972 1.5866629564 1.6183962155 1.6501294746 1.6818627337 
1.7135959929 1.745329252 1.7770625111 1.8087957702 1.8405290294 1.8722622885 1.9039955476 1.9357288068 1.9674620659 
1.999195325 2.0309285841 2.0626618433 2.0943951024 2.1261283615 2.1578616206 2.1895948798 2.2213281389 2.253061398 
2.2847946572 2.3165279163 2.3482611754 2.3799944345 2.4117276937 2.4434609528 2.4751942119 2.506927471 2.5386607302 
2.5703939893 2.6021272484 2.6338605076 2.6655937667 2.6973270258 2.7290602849 2.7607935441 2.7925268032 2.8242600623 
2.8559933214 2.8877265806 2.9194598397 2.9511930988 2.982926358 3.0146596171 3.0463928762 3.0781261353 3.1098593945 
3.1415926536 
_radius 1 100 double
8.57966102e-15 0.2976478283 0.59532055454 0.89290454095 1.190110777 1.4863669881 1.780727729 2.0718431753 2.3580117773 
2.637308893 2.907752944 3.1674610306 3.4147621771 3.6482665538 3.8669122706 4.0700122188 4.2573032117 4.4289752439 
4.5856495804 4.7282885635 4.8580491723 4.9761184433 5.0835761392 5.1813151041 5.270023255 5.3502098517 5.4222527751 
5.4864498468 5.5430639752 5.5923509903 5.6345538986 5.6698490779 5.6982454977 5.7194618334 5.732823753 5.7372225159 
5.7311560888 5.7128470527 5.6804131476 5.632065056 5.5663179015 5.4822139322 5.3795507044 5.2590903217 5.1227034066 
4.9733940919 4.8151699906 4.6527606856 4.4912343363 4.3355938337 4.1904347493 4.0597125289 3.9466079637 3.8534261173 
3.7814538871 3.7307678247 3.7001065609 3.6869891641 3.6881557495 3.7001942732 3.7201056336 3.745627632 3.7752782939 
3.8081778263 3.8437440111 3.8813537384 3.9200486265 3.9583462092 3.9941997774 4.025124672 4.0484746835 4.0618152134 
4.0633119741 4.0520455946 4.0281761934 3.9929126146 3.9482797444 3.8967157529 3.8405639874 3.7815491936 3.7203408912 
3.6562983936 3.5874538044 3.5107315784 3.4223542295 3.3183617016 3.1951675165 3.0500704441 2.8816349804 2.6898625029 
2.4761114745 2.2427870604 1.9928867341 1.7295290985 1.4555879788 1.1735050971 0.88528509966 0.59261563702 0.29702503931 
4.3432267803e-14 
_area 1 100 double
0 0.25108780769 1.0058002938 2.2667383867 4.0329837221 6.2940781334 9.0248195485 12.182910575 15.710564126 
19.539696162 23.598831073 27.818964831 32.136071151 36.489976598 40.821983463 45.074708169 49.195819213 53.144034196 
56.893603238 60.434143285 63.765603488 66.891344582 69.813426439 72.532262554 75.049527365 77.371406873 79.510007659 
81.482670698 83.310126286 85.014004686 86.612992942 88.116608852 89.516941474 90.780742296 91.845376958 92.621700949 
93.004894346 92.891192191 92.195801372 90.866917669 88.893048478 86.304118905 83.168628111 79.588464435 75.691333684 
71.620284916 67.520974154 63.52845475 59.755123946 56.281699842 53.155449862 50.398547288 48.021621099 46.034668032 
44.450842096 43.279048776 42.5049773 42.078025088 41.92454953 41.974522284 42.177452107 42.503804951 42.93854882 
43.472361277 44.093547923 44.781936318 45.504866208 46.215145158 46.851518859 47.342989782 47.617925199 47.616915475 
47.305953028 46.685651033 45.793725307 44.700356161 43.497156902 42.279834417 41.124090711 40.05890743 39.053266798 
38.031769496 36.906334162 35.597747344 34.041580835 32.188492386 30.006966504 27.489934516 24.662203524 21.584343099 
18.350154625 15.07762797 11.895620431 8.9294256834 6.2881461037 4.0560489857 2.2892681616 1.0181916857 0.25446518545 
1.7053025658e-13 
