# vtk DataFile Version 5.1
vtk output
ASCII
DATASET POLYDATA
POINTS 1002 float
-10.7359 0.0136017 -1.66754 -21.839 -17.5972 -2.80641 -8.51336 -2.60213 4.48238 
-20.1083 -18.2694 1.7552 -11.9117 -7.64192 -2.57716 -12.0367 -8.80872 0.897258 
-20.2546 -5.15013 0.791954 -19.6189 -6.12972 4.52554 -17.1585 -29.5751 -3.95775 
-0.742332 -0.317169 0.00594287 -24.711 -23.9658 -0.739923 -10.7695 5.09396 3.39891 
-11.6429 -0.818016 -1.79966 -12.6787 -1.77641 -1.91164 -13.8436 -2.94143 -1.87997 
-15.2094 -4.39392 -1.73236 -16.7747 -6.19476 -1.69648 -18.3423 -8.38615 -1.85005 
-19.6973 -10.8518 -2.06294 -20.7336 -13.3198 -2.28737 -21.4262 -15.5897 -2.54339 
-10.4277 -0.445492 -1.94546 -10.1511 -0.974438 -2.24868 -9.92471 -1.5204 -2.58336 
-9.7701 -2.21788 -2.87413 -9.69615 -3.2027 -3.0138 -9.69034 -4.25351 -3.04796 
-9.80822 -5.15208 -3.08547 -10.2032 -5.99792 -3.06686 -10.9471 -6.85296 -2.88431 
-11.6061 -0.110658 -1.4475 -12.5319 -0.342192 -1.17363 -13.5224 -0.689972 -0.845943 
-14.5998 -1.12662 -0.50745 -15.7217 -1.65075 -0.215401 -16.8174 -2.2781 0.0210213 
-17.8322 -2.97333 0.244681 -18.7343 -3.69693 0.464725 -19.5355 -4.43333 0.649169 
-9.66116 0.56067 -1.73994 -8.51331 1.09126 -1.83299 -7.27027 1.51225 -1.87259 
-5.88048 1.76389 -1.80815 -4.44336 1.82597 -1.69592 -3.19505 1.67781 -1.55712 
-2.21215 1.35225 -1.28663 -1.44068 0.903942 -0.858163 -0.928029 0.337637 -0.395958 
-10.4453 0.753761 -1.41867 -10.2205 1.51223 -1.13685 -10.0303 2.30155 -0.786193 
-9.88077 3.07204 -0.331224 -9.84245 3.72443 0.215488 -9.91357 4.26014 0.79167 
-10.0783 4.72688 1.3819 -10.3465 5.06539 2.0374 -10.6173 5.18483 2.74252 
-21.452 -17.3382 -2.88331 -20.9994 -16.8911 -2.93915 -20.4243 -16.1831 -2.94603 
-19.7233 -15.2247 -2.84271 -18.9267 -13.9992 -2.64651 -17.8717 -12.384 -2.49052 
-16.4022 -10.549 -2.43564 -14.757 -9.02206 -2.43466 -13.2502 -8.09673 -2.47674 
-21.9976 -16.5584 -2.53839 -22.1176 -15.349 -2.24052 -22.1413 -13.9254 -1.94569 
-22.0193 -12.3643 -1.64259 -21.8154 -10.871 -1.27964 -21.5811 -9.52311 -0.863301 
-21.2654 -8.24473 -0.44769 -20.8934 -7.0455 -0.0389949 -20.5544 -6.00955 0.380104 
-21.8562 -19.4322 -3.13165 -21.7123 -21.3821 -3.50972 -21.3718 -23.3503 -3.96275 
-20.8378 -25.2342 -4.42166 -20.1686 -26.9006 -4.80263 -19.3984 -28.2329 -5.12117 
-18.5465 -29.2102 -5.28664 -17.7702 -29.7858 -5.10275 -17.2906 -29.8853 -4.59083 
-22.2573 -18.8702 -2.90769 -22.6778 -20.0815 -2.99361 -23.0798 -21.1883 -3.04839 
-23.4094 -22.2441 -3.02031 -23.6355 -23.2277 -2.8594 -23.8279 -23.96 -2.61309 
-24.0867 -24.3466 -2.31713 -24.3862 -24.4385 -1.90049 -24.6108 -24.2916 -1.34261 
-9.44075 -3.389 4.4357 -10.553 -4.2177 4.3268 -11.9216 -5.18106 4.18551 
-13.5346 -6.39077 3.97317 -15.2287 -7.8929 3.63974 -16.7925 -9.76263 3.22391 
-18.0959 -11.9896 2.78242 -19.0834 -14.2986 2.36357 -19.7391 -16.4112 2.02184 
-8.33656 -3.16105 4.20097 -8.2625 -3.74254 3.8458 -8.27607 -4.38772 3.47754 
-8.36778 -5.14602 3.14423 -8.62648 -5.91976 2.80015 -9.12701 -6.56821 2.37834 
-9.79478 -7.13159 1.91457 -10.5194 -7.70547 1.50719 -11.2714 -8.27501 1.18449 
-9.30642 -2.55233 4.72212 -10.1633 -2.57074 4.99356 -11.1094 -2.72974 5.28247 
-12.2933 -3.05238 5.47571 -13.7504 -3.48465 5.51218 -15.255 -3.98858 5.46165 
-16.5942 -4.53749 5.33414 -17.746 -5.07917 5.09159 -18.7505 -5.60239 4.79638 
-7.48536 -2.15682 4.30159 -6.43386 -1.7253 4.03355 -5.44004 -1.34609 3.67608 
-4.46447 -0.995218 3.25094 -3.46085 -0.663783 2.80203 -2.58187 -0.430493 2.33061 
-1.91022 -0.329281 1.77284 -1.33153 -0.299528 1.13923 -0.883897 -0.296932 0.532676 
-8.14236 -1.72762 4.5949 -7.83226 -0.768516 4.63899 -7.61193 0.268397 4.69021 
-7.53588 1.4655 4.76953 -7.6602 2.7217 4.7549 -7.99533 3.72733 4.60226 
-8.54945 4.40101 4.41034 -9.30565 4.85666 4.1835 -10.1115 5.09667 3.84272 
-19.6519 -17.6593 1.69957 -19.1776 -16.8256 1.60369 -18.6473 -15.8831 1.51156 
-18.0113 -14.8735 1.45319 -17.2469 -13.7084 1.42287 -16.3478 -12.4272 1.40966 
-15.3356 -11.2225 1.37171 -14.2537 -10.2033 1.26713 -13.139 -9.39488 1.10203 
-20.4076 -17.5582 1.93343 -20.6674 -16.6171 2.15538 -20.7994 -15.5246 2.4706 
-20.8068 -14.2976 2.80901 -20.7705 -12.884 3.11128 -20.685 -11.3941 3.44183 
-20.4721 -9.95915 3.79537 -20.1592 -8.56634 4.08224 -19.8575 -7.25889 4.30928 
-20.0409 -19.7898 1.45378 -19.9037 -21.5003 1.07378 -19.694 -23.3326 0.648131 
-19.3414 -25.0817 0.183009 -18.8933 -26.6245 -0.423706 -18.5058 -27.8873 -1.20141 
-18.1125 -28.7815 -2.00254 -17.6213 -29.3515 -2.73695 -17.2359 -29.6374 -3.40801 
-20.5325 -19.6578 1.60874 -20.9523 -21.0207 1.42936 -21.4165 -22.2855 1.27797 
-21.969 -23.3588 1.17596 -22.5527 -24.1133 0.966237 -23.0575 -24.4759 0.587766 
-23.5165 -24.5339 0.235574 -24.0022 -24.4475 -0.0267421 -24.4341 -24.277 -0.340513 
-11.7008 -7.88594 -2.41486 -11.4347 -8.10682 -2.21171 -11.2432 -8.3731 -2.00035 
-11.2023 -8.6569 -1.71423 -11.2176 -8.83693 -1.27741 -11.2732 -8.88594 -0.77739 
-11.4392 -8.87659 -0.32016 -11.6558 -8.85499 0.116836 -11.848 -8.8321 0.540437 
-13.8147 -8.84265 -2.24356 -15.5555 -10.7935 -2.16818 -16.7317 -13.6058 -2.34312 
-17.4947 -16.9657 -2.57312 -18.0502 -20.2649 -2.77732 -18.2139 -23.0182 -3.02763 
-18.0025 -25.1832 -3.35244 -17.6884 -26.9851 -3.69824 -17.3808 -28.4876 -3.94008 
-9.98714 -7.02377 -2.96397 -8.22826 -6.50977 -3.27542 -6.80778 -5.88195 -3.20131 
-5.59652 -5.12481 -2.74718 -4.436 -4.26753 -2.23412 -3.38695 -3.31789 -1.81218 
-2.45955 -2.42515 -1.37919 -1.60448 -1.69844 -0.899151 -0.974392 -1.0284 -0.430401 
-13.4766 -9.83167 0.716803 -14.814 -11.3942 0.444505 -15.8989 -13.5323 0.0853904 
-16.7606 -16.0388 -0.299786 -17.4004 -18.808 -0.705195 -17.6523 -21.8239 -1.20947 
-17.5744 -24.6646 -1.86336 -17.4293 -26.8555 -2.61033 -17.2887 -28.4206 -3.33344 
-10.3592 -8.11458 0.845006 -8.50882 -7.60692 0.795215 -6.67153 -7.16769 0.777941 
-5.05479 -6.61999 0.785529 -3.77603 -5.84378 0.740085 -2.77743 -4.87021 0.587589 
-1.94648 -3.7971 0.39592 -1.28263 -2.6626 0.240195 -0.867472 -1.47938 0.116711 
-20.4795 -5.08879 1.13738 -20.669 -4.9909 1.51829 -20.839 -4.84649 1.96693 
-20.9798 -4.72164 2.5304 -20.9838 -4.71215 3.14219 -20.8049 -4.87208 3.67004 
-20.5513 -5.16819 4.07269 -20.2858 -5.50243 4.3461 -19.9749 -5.81983 4.48087 
-21.1497 -6.42024 0.656161 -22.0827 -7.90622 0.49102 -23.0096 -9.64945 0.292117 
-23.9126 -11.5447 0.0764962 -24.7038 -13.4622 -0.0912728 -25.1932 -15.6293 -0.252045 
-25.3154 -18.2296 -0.505437 -25.217 -20.7788 -0.74283 -25.0173 -22.6955 -0.804065 
-19.4941 -3.89433 1.11118 -18.6414 -2.56616 1.43006 -17.7313 -1.22362 1.73712 
-16.784 0.0348917 2.01705 -15.7507 1.18056 2.28506 -14.633 2.25052 2.55073 
-13.5569 3.20848 2.787 -12.6032 4.0039 3.00194 -11.7065 4.64051 3.21625 
-20.5905 -7.43774 4.12146 -21.6154 -9.08492 3.64142 -22.6614 -11.1049 3.09896 
-23.7152 -13.3065 2.6563 -24.6375 -15.4179 2.35532 -25.166 -17.4726 1.94552 
-25.2605 -19.55 1.28393 -25.1399 -21.4027 0.526991 -24.9535 -22.8379 -0.157945 
-18.8915 -4.748 4.91793 -18.1167 -3.29384 5.30377 -17.2322 -1.7789 5.53599 
-16.1593 -0.282298 5.55502 -15.0035 1.1465 5.49191 -13.9677 2.42416 5.36721 
-13.0593 3.40445 5.02271 -12.2187 4.09949 4.48173 -11.4629 4.64788 3.9196 
-17.1414 -30.6079 -4.1541 -17.6302 -31.3268 -4.11818 -18.817 -31.6037 -3.83976 
-20.2526 -31.3519 -3.41491 -21.3391 -30.6061 -2.96958 -22.1214 -29.5666 -2.52512 
-22.8771 -28.31 -2.02097 -23.6065 -26.8242 -1.49376 -24.2318 -25.3163 -1.05994 
-0.882513 0.893705 0.232583 -1.32166 2.1005 0.519679 -2.0451 3.08407 0.831831 
-2.99446 3.88595 1.13408 -4.0225 4.65433 1.43262 -5.15897 5.28007 1.77412 
-6.59271 5.6155 2.21681 -8.19219 5.67322 2.71232 -9.62391 5.48124 3.1234 
-11.4105 -1.35274 -2.08743 -11.2108 -1.91864 -2.38581 -12.5467 -2.40241 -2.16287 
-11.1383 -2.54643 -2.68821 -12.504 -3.08028 -2.39595 -13.8846 -3.69542 -2.05464 
-11.219 -3.42748 -2.89866 -12.6562 -3.90051 -2.60151 -14.0626 -4.55201 -2.20719 
-15.4785 -5.31865 -1.88551 -11.301 -4.44277 -2.94164 -12.9114 -4.87107 -2.70239 
-14.3758 -5.53428 -2.32612 -15.8405 -6.38066 -2.02805 -17.2123 -7.37197 -1.89841 
-11.3367 -5.27932 -2.89386 -13.1091 -5.73132 -2.67454 -14.7498 -6.52805 -2.37384 
-16.2553 -7.55577 -2.14543 -17.6771 -8.72293 -2.09177 -18.8293 -9.87925 -2.09368 
-11.5979 -6.07745 -2.821 -13.3896 -6.57005 -2.59704 -15.2215 -7.58029 -2.37719 
-16.7833 -8.88831 -2.24608 -18.1436 -10.2583 -2.28235 -19.2847 -11.5426 -2.35522 
-20.1135 -12.5761 -2.34753 -12.29 -7.05769 -2.68316 -13.9715 -7.71057 -2.51826 
-15.8209 -8.96888 -2.39539 -17.4036 -10.5534 -2.36072 -18.6088 -12.0579 -2.47175 
-19.6057 -13.3537 -2.61897 -20.3952 -14.3893 -2.66201 -20.9681 -15.112 -2.6162 
-9.28408 0.0607278 -2.03654 -8.07891 0.510761 -2.13586 -8.96712 -0.536985 -2.36207 
-6.73717 0.817665 -2.12492 -7.70214 -0.216062 -2.42937 -8.65692 -1.19612 -2.69213 
-5.23464 0.949553 -1.98646 -6.27732 -0.0402049 -2.34202 -7.30265 -1.03531 -2.69579 
-8.35797 -2.05044 -2.92847 -3.81379 0.870938 -1.8566 -4.7753 -0.0323293 -2.18407 
-5.90651 -1.01693 -2.58104 -6.99185 -2.04074 -2.90212 -8.2309 -3.15885 -3.04798 
-2.72066 0.568622 -1.70645 -3.49886 -0.258118 -2.0647 -4.59189 -1.19897 -2.43903 
-5.79915 -2.20206 -2.8195 -7.03517 -3.25483 -3.0881 -8.37192 -4.30572 -3.17926 
-1.91064 0.122777 -1.36647 -2.60747 -0.662983 -1.82351 -3.54931 -1.56949 -2.22117 
-4.74292 -2.56487 -2.61332 -6.0627 -3.53575 -3.01474 -7.37894 -4.49962 -3.30243 
-8.7067 -5.34523 -3.31524 -1.30921 -0.413385 -0.884202 -2.00428 -1.14403 -1.37641 
-2.87251 -1.98148 -1.82795 -3.90848 -2.96779 -2.23246 -5.15057 -3.92617 -2.681 
-6.46186 -4.80281 -3.16375 -7.76593 -5.61466 -3.41628 -9.22323 -6.26486 -3.26319 
-1.25655 -2.19063 -0.352244 -1.8064 -3.42357 -0.315603 -2.03449 -2.88516 -0.885487 
-2.48744 -4.67634 -0.225162 -2.59602 -4.22738 -0.93986 -2.95732 -3.69122 -1.41354 
-3.2957 -5.82483 -0.000789691 -3.19362 -5.60143 -0.856411 -3.50204 -5.11545 -1.48617 
-3.93928 -4.62007 -1.86063 -4.45126 -6.71035 0.21955 -4.06428 -6.72968 -0.562271 
-4.15654 -6.49271 -1.37171 -4.56147 -6.0098 -1.9318 -5.01365 -5.52231 -2.3252 
[...]
POINT_DATA 1002
FIELD FieldData 4
_paraPhi 1 1002 double
6.2831853072 3.1415926536 6.2831853072 3.1415926536 4.7123889804 4.7123889804 1.5707963268 1.5707963268 3.6951670125 
5.7296109483 2.5880182947 0.5535743589 6.2831853072 6.2831853072 6.2831853072 6.2831853072 3.1415926536 3.1415926536 
3.1415926536 3.1415926536 3.1415926536 6.1053039672 5.898798347 5.6768734901 5.4599499503 5.2659633393 5.1032165617 
4.9713148346 4.8656852733 4.7809517865 0.17788134 0.38438696014 0.60631181711 0.82323535693 1.0172219679 1.1799687454 
1.3118704726 1.4175000338 1.5022335207 6.1892828907 6.1070320098 6.035312792 5.9728339911 5.9183214791 5.8706119594 
5.8286879411 5.7916808611 5.7588591896 0.093902416448 0.17615329733 0.2478725152 0.31035131605 0.36486382811 0.41257334776 
0.45449736604 0.4915044461 0.52432611754 3.3194739936 3.5259796137 3.7479044707 3.9648280105 4.1588146215 4.321561399 
4.4534631262 4.5590926874 4.6438261743 2.9637113136 2.7572056934 2.5352808365 2.3183572967 2.1243706857 1.9616239082 
1.829722181 1.7240926197 1.6393591329 3.23549507 3.3177459509 3.3894651688 3.4519439696 3.5064564817 3.5541660013 
3.5960900196 3.6330970997 3.6659187711 3.0476902371 2.9654393563 2.8937201384 2.8312413375 2.7767288255 2.7290193058 
2.6870952876 2.6500882075 2.617266536 6.2831853072 6.2831853072 6.2831853072 6.2831853072 3.1415926536 3.1415926536 
3.1415926536 3.1415926536 3.1415926536 6.1053039672 5.898798347 5.6768734901 5.4599499503 5.2659633393 5.1032165617 
4.9713148346 4.8656852733 4.7809517865 0.17788134 0.38438696014 0.60631181711 0.82323535693 1.0172219679 1.1799687454 
1.3118704726 1.4175000338 1.5022335207 6.1892828907 6.1070320098 6.035312792 5.9728339911 5.9183214791 5.8706119594 
5.8286879411 5.7916808611 5.7588591896 0.093902416448 0.17615329733 0.2478725152 0.31035131605 0.36486382811 0.41257334776 
0.45449736604 0.4915044461 0.52432611754 3.3194739936 3.5259796137 3.7479044707 3.9648280105 4.1588146215 4.321561399 
4.4534631262 4.5590926874 4.6438261743 2.9637113136 2.7572056934 2.5352808365 2.3183572967 2.1243706857 1.9616239082 
1.829722181 1.7240926197 1.6393591329 3.23549507 3.3177459509 3.3894651688 3.4519439696 3.5064564817 3.5541660013 
3.5960900196 3.6330970997 3.6659187711 3.0476902371 2.9654393563 2.8937201384 2.8312413375 2.7767288255 2.7290193058 
2.6870952876 2.6500882075 2.617266536 4.7123889804 4.7123889804 4.7123889804 4.7123889804 4.7123889804 4.7123889804 
4.7123889804 4.7123889804 4.7123889804 4.6087898617 4.4991390697 4.3857031936 4.2712800401 4.1588146215 4.0509635631 
3.94975894 3.8564636551 3.7716124825 4.8159880991 4.9256388911 5.0390747672 5.1534979207 5.2659633393 5.3738143976 
5.4750190208 5.5683143056 5.6531654782 4.6087898617 4.4991390697 4.3857031936 4.2712800401 4.1588146215 4.0509635631 
3.94975894 3.8564636551 3.7716124825 4.8159880991 4.9256388911 5.0390747672 5.1534979207 5.2659633393 5.3738143976 
5.4750190208 5.5683143056 5.6531654782 1.5707963268 1.5707963268 1.5707963268 1.5707963268 1.5707963268 1.5707963268 
1.5707963268 1.5707963268 1.5707963268 1.6743954455 1.7840462375 1.8974821136 2.0119052671 2.1243706857 2.232221744 
2.3334263672 2.426721652 2.5115728246 1.4671972081 1.3575464161 1.24411054 1.1296873865 1.0172219679 0.90937090954 
0.80816628637 0.71487100155 0.63001982895 1.6743954455 1.7840462375 1.8974821136 2.0119052671 2.1243706857 2.232221744 
2.3334263672 2.426721652 2.5115728246 1.4671972081 1.3575464161 1.24411054 1.1296873865 1.0172219679 0.90937090954 
0.80816628637 0.71487100155 0.63001982895 3.6007720849 3.4966939854 3.3839471039 3.2645756454 3.1415926536 3.0186096618 
2.8992382033 2.7864913217 2.6824132222 5.8240058758 5.9280839753 6.0408308569 6.1602023154 6.2831853072 0.12298299178 
0.2423544503 0.35510133185 0.45917943135 6.0560271438 5.7885595667 5.9702140275 5.5125918794 5.6029703303 5.7885595667 
5.2659633393 5.2659633393 5.2659633393 5.2659633393 5.0674903122 5.0120975802 4.9155579264 4.7123889804 4.1588146215 
4.9155579264 4.8353719722 4.7123889804 4.5092200343 4.1588146215 3.6362183941 4.8004512023 4.7123889804 4.5894059886 
4.4126803806 4.1588146215 3.8218076305 3.4545639333 4.7123889804 4.6243267584 4.5092200343 4.3572876485 4.1588146215 
3.9121860814 3.6362183941 3.368750817 6.0174235957 5.9434319871 5.8263323547 5.8809213739 5.7674481418 5.6279784266 
5.8278025282 5.718968232 5.5891129425 5.4372443565 5.7823484065 5.678536687 5.5575666702 5.4192596322 5.2659633393 
5.743164462 5.6444075337 5.5314983644 5.4046708639 5.2659633393 5.1195510325 5.7091357773 5.6152775188 5.5096229709 
5.3926039573 5.2659633393 5.1329233157 4.9978930058 5.6793730533 5.5901633916 5.4910209005 5.3824597928 5.2659633393 
5.1440684722 5.0201624502 4.8979782167 5.5683143056 5.4750190208 5.4750190208 5.3738143976 5.3738143976 5.3738143976 
5.2659633393 5.2659633393 5.2659633393 5.2659633393 5.1534979207 5.1534979207 5.1534979207 5.1534979207 5.1534979207 
5.0390747672 5.0390747672 5.0390747672 5.0390747672 5.0390747672 5.0390747672 4.9256388911 4.9256388911 4.9256388911 
4.9256388911 4.9256388911 4.9256388911 4.9256388911 4.8159880991 4.8159880991 4.8159880991 4.8159880991 4.8159880991 
4.8159880991 4.8159880991 4.8159880991 4.6087898617 4.6087898617 4.4991390697 4.6087898617 4.4991390697 4.3857031936 
4.6087898617 4.4991390697 4.3857031936 4.2712800401 4.6087898617 4.4991390697 4.3857031936 4.2712800401 4.1588146215 
4.6087898617 4.4991390697 4.3857031936 4.2712800401 4.1588146215 4.0509635631 4.6087898617 4.4991390697 4.3857031936 
4.2712800401 4.1588146215 4.0509635631 3.94975894 4.6087898617 4.4991390697 4.3857031936 4.2712800401 4.1588146215 
4.0509635631 3.94975894 3.8564636551 4.526799744 4.4046155105 4.426884955 4.2807094886 4.2918546451 4.3052269283 
4.1588146215 4.1588146215 4.1588146215 4.1588146215 4.042318168 4.0321740035 4.0201070968 4.0055183285 3.9875336042 
3.9337570603 3.9151549899 3.8932795963 3.8672112905 3.8356650183 3.7967995342 3.8346145692 3.809500442 3.7803704271 
3.7462412737 3.7058097288 3.657329819 3.5984456061 3.7454049075 3.7156421835 3.6816134988 3.6424295543 3.5969754326 
3.5438565869 3.4813459737 3.4073543651 3.5642842451 3.4524645613 3.5233842518 3.3320300872 3.403123212 3.4773852225 
3.20576226 3.2746326772 3.348015857 3.4255060145 3.0774230472 3.1415926536 3.2112816139 3.2864685043 3.3668817272 
2.95115522 3.00855263 3.0719036933 3.1415926536 3.2178377658 3.3005964304 2.8307207459 2.8800620952 2.9351694502 
2.9967168029 3.0653475414 3.1415926536 3.225752376 2.718901062 2.7598010554 2.8058000847 2.8576792927 2.91630358 
2.9825888767 3.0574329311 3.1415926536 3.5642842451 3.5233842518 3.4524645613 3.4773852225 3.403123212 3.3320300872 
3.4255060145 3.348015857 3.2746326772 3.20576226 3.3668817272 3.2864685043 3.2112816139 3.1415926536 3.0774230472 
3.3005964304 3.2178377658 3.1415926536 3.0719036933 3.00855263 2.95115522 3.225752376 3.1415926536 3.0653475414 
2.9967168029 2.9351694502 2.8800620952 2.8307207459 3.1415926536 3.0574329311 2.9825888767 2.91630358 2.8576792927 
2.8058000847 2.7598010554 2.718901062 4.526799744 4.426884955 4.4046155105 4.3052269283 4.2918546451 4.2807094886 
4.1588146215 4.1588146215 4.1588146215 4.1588146215 3.9875336042 4.0055183285 4.0201070968 4.0321740035 4.042318168 
3.7967995342 3.8356650183 3.8672112905 3.8932795963 3.9151549899 3.9337570603 3.5984456061 3.657329819 3.7058097288 
3.7462412737 3.7803704271 3.809500442 3.8346145692 3.4073543651 3.4813459737 3.5438565869 3.5969754326 3.6424295543 
3.6816134988 3.7156421835 3.7454049075 4.7123889804 4.8004512023 4.6243267584 4.9155579264 4.7123889804 4.5092200343 
5.0674903122 4.8353719722 4.5894059886 4.3572876485 5.2659633393 5.0120975802 4.7123889804 4.4126803806 4.1588146215 
5.5125918794 5.2659633393 4.9155579264 4.5092200343 4.1588146215 3.9121860814 5.7885595667 5.6029703303 5.2659633393 
4.7123889804 4.1588146215 3.8218076305 3.6362183941 6.0560271438 5.9702140275 5.7885595667 5.2659633393 4.1588146215 
3.6362183941 3.4545639333 3.368750817 0.22715816343 0.49462574053 0.3129712797 0.77059342779 0.68021497688 0.49462574053 
1.0172219679 1.0172219679 1.0172219679 1.0172219679 1.2156949949 1.271087727 1.3676273807 1.5707963268 2.1243706857 
1.3676273807 1.447813335 1.5707963268 1.7739652728 2.1243706857 2.6469669131 1.4827341049 1.5707963268 1.6937793186 
1.8705049266 2.1243706857 2.4613776767 2.8286213739 1.5707963268 1.6588585487 1.7739652728 1.9258976586 2.1243706857 
2.3709992258 2.6469669131 2.9144344902 1.7563855631 1.8785697967 1.8563003522 2.0024758186 1.9913306621 1.9779583789 
2.1243706857 2.1243706857 2.1243706857 2.1243706857 2.2408671392 2.2510113037 2.2630782103 2.2776669786 2.295651703 
2.3494282469 2.3680303173 2.3899057108 2.4159740166 2.4475202889 2.486385773 2.448570738 2.4736848652 2.5028148801 
2.5369440334 2.5773755784 2.6258554882 2.6847397011 2.5377803997 2.5675431237 2.6015718084 2.6407557529 2.6862098746 
2.7393287203 2.8018393335 2.8758309421 1.6743954455 1.6743954455 1.7840462375 1.6743954455 1.7840462375 1.8974821136 
1.6743954455 1.7840462375 1.8974821136 2.0119052671 1.6743954455 1.7840462375 1.8974821136 2.0119052671 2.1243706857 
1.6743954455 1.7840462375 1.8974821136 2.0119052671 2.1243706857 2.232221744 1.6743954455 1.7840462375 1.8974821136 
2.0119052671 2.1243706857 2.232221744 2.3334263672 1.6743954455 1.7840462375 1.8974821136 2.0119052671 2.1243706857 
2.232221744 2.3334263672 2.426721652 1.4671972081 1.3575464161 1.4671972081 1.24411054 1.3575464161 1.4671972081 
1.1296873865 1.24411054 1.3575464161 1.4671972081 1.0172219679 1.1296873865 1.24411054 1.3575464161 1.4671972081 
0.90937090954 1.0172219679 1.1296873865 1.24411054 1.3575464161 1.4671972081 0.80816628637 0.90937090954 1.0172219679 
1.1296873865 1.24411054 1.3575464161 1.4671972081 0.71487100155 0.80816628637 0.90937090954 1.0172219679 1.1296873865 
1.24411054 1.3575464161 1.4671972081 0.60381225391 0.57404952988 0.69302191562 0.54002084522 0.66790778838 0.79216440667 
0.50083690068 0.63877777351 0.77356233629 0.90072551443 0.45538277901 0.60464862014 0.75168694275 0.89058134991 1.0172219679 
0.40226393329 0.56421707518 0.72561863695 0.87851444325 1.0172219679 1.139116835 0.33975332011 0.51573716537 0.69407236469 
0.86392567495 1.0172219679 1.1502619915 1.2630228569 0.26576171152 0.45685295248 0.6552068806 0.84594095064 1.0172219679 
1.1636342747 1.2852923014 1.3852070904 0.22715816343 0.3129712797 0.49462574053 0.49462574053 0.68021497688 0.77059342779 
1.0172219679 1.0172219679 1.0172219679 1.0172219679 2.1243706857 1.5707963268 1.3676273807 1.271087727 1.2156949949 
2.6469669131 2.1243706857 1.7739652728 1.5707963268 1.447813335 1.3676273807 2.8286213739 2.4613776767 2.1243706857 
1.8705049266 1.6937793186 1.5707963268 1.4827341049 2.9144344902 2.6469669131 2.3709992258 2.1243706857 1.9258976586 
1.7739652728 1.6588585487 1.5707963268 1.7563855631 1.8563003522 1.8785697967 1.9779583789 1.9913306621 2.0024758186 
2.1243706857 2.1243706857 2.1243706857 2.1243706857 2.295651703 2.2776669786 2.2630782103 2.2510113037 2.2408671392 
2.486385773 2.4475202889 2.4159740166 2.3899057108 2.3680303173 2.3494282469 2.6847397011 2.6258554882 2.5773755784 
2.5369440334 2.5028148801 2.4736848652 2.448570738 2.8758309421 2.8018393335 2.7393287203 2.6862098746 2.6407557529 
2.6015718084 2.5675431237 2.5377803997 5.8604937156 5.901393709 5.9723133995 5.9473927383 6.0216547488 6.0927478736 
5.9992719463 6.0767621038 6.1501452836 6.2190157008 6.0578962336 6.1383094565 6.2134963469 0 0.064169606361 
6.1241815303 6.206940195 6.2831853072 0.069688960264 0.13304002361 0.19043743361 6.1990255847 0 0.07624511221 
0.14487585072 0.20642320337 0.26153055843 0.3108719077 0 0.084159722458 0.15900377685 0.22528907359 0.28391336087 
0.3357925689 0.38179159818 0.42269159155 5.8604937156 5.9723133995 5.901393709 6.0927478736 6.0216547488 5.9473927383 
6.2190157008 6.1501452836 6.0767621038 5.9992719463 0.064169606361 0 6.2134963469 6.1383094565 6.0578962336 
0.19043743361 0.13304002361 0.069688960264 6.2831853072 6.206940195 6.1241815303 0.3108719077 0.26153055843 0.20642320337 
0.14487585072 0.07624511221 6.2831853072 6.1990255847 0.42269159155 0.38179159818 0.3357925689 0.28391336087 0.22528907359 
0.15900377685 0.084159722458 0 5.6793730533 5.7091357773 5.5901633916 5.743164462 5.6152775188 5.4910209005 
5.7823484065 5.6444075337 5.5096229709 5.3824597928 5.8278025282 5.678536687 5.5314983644 5.3926039573 5.2659633393 
5.8809213739 5.718968232 5.5575666702 5.4046708639 5.2659633393 5.1440684722 5.9434319871 5.7674481418 5.5891129425 
5.4192596322 5.2659633393 5.1329233157 5.0201624502 6.0174235957 5.8263323547 5.6279784266 5.4372443565 5.2659633393 
5.1195510325 4.9978930058 4.8979782167 1.3852070904 1.2852923014 1.2630228569 1.1636342747 1.1502619915 1.139116835 
1.0172219679 1.0172219679 1.0172219679 1.0172219679 0.84594095064 0.86392567495 0.87851444325 0.89058134991 0.90072551443 
0.6552068806 0.69407236469 0.72561863695 0.75168694275 0.77356233629 0.79216440667 0.45685295248 0.51573716537 0.56421707518 
0.60464862014 0.63877777351 0.66790778838 0.69302191562 0.26576171152 0.33975332011 0.40226393329 0.45538277901 0.50083690068 
0.54002084522 0.57404952988 0.60381225391 
_paraPhiHalf 1 1002 double
0 3.1415926536 0 3.1415926536 1.5707963268 1.5707963268 1.5707963268 1.5707963268 2.5880182947 
0.5535743589 2.5880182947 0.5535743589 0 0 0 0 3.1415926536 3.1415926536 
3.1415926536 3.1415926536 3.1415926536 0.17788134 0.38438696014 0.60631181711 0.82323535693 1.0172219679 1.1799687454 
1.3118704726 1.4175000338 1.5022335207 0.17788134 0.38438696014 0.60631181711 0.82323535693 1.0172219679 1.1799687454 
1.3118704726 1.4175000338 1.5022335207 0.093902416448 0.17615329733 0.2478725152 0.31035131605 0.36486382811 0.41257334776 
0.45449736604 0.4915044461 0.52432611754 0.093902416448 0.17615329733 0.2478725152 0.31035131605 0.36486382811 0.41257334776 
0.45449736604 0.4915044461 0.52432611754 2.9637113136 2.7572056934 2.5352808365 2.3183572967 2.1243706857 1.9616239082 
1.829722181 1.7240926197 1.6393591329 2.9637113136 2.7572056934 2.5352808365 2.3183572967 2.1243706857 1.9616239082 
1.829722181 1.7240926197 1.6393591329 3.0476902371 2.9654393563 2.8937201384 2.8312413375 2.7767288255 2.7290193058 
2.6870952876 2.6500882075 2.617266536 3.0476902371 2.9654393563 2.8937201384 2.8312413375 2.7767288255 2.7290193058 
2.6870952876 2.6500882075 2.617266536 0 0 0 0 3.1415926536 3.1415926536 
3.1415926536 3.1415926536 3.1415926536 0.17788134 0.38438696014 0.60631181711 0.82323535693 1.0172219679 1.1799687454 
1.3118704726 1.4175000338 1.5022335207 0.17788134 0.38438696014 0.60631181711 0.82323535693 1.0172219679 1.1799687454 
1.3118704726 1.4175000338 1.5022335207 0.093902416448 0.17615329733 0.2478725152 0.31035131605 0.36486382811 0.41257334776 
0.45449736604 0.4915044461 0.52432611754 0.093902416448 0.17615329733 0.2478725152 0.31035131605 0.36486382811 0.41257334776 
0.45449736604 0.4915044461 0.52432611754 2.9637113136 2.7572056934 2.5352808365 2.3183572967 2.1243706857 1.9616239082 
1.829722181 1.7240926197 1.6393591329 2.9637113136 2.7572056934 2.5352808365 2.3183572967 2.1243706857 1.9616239082 
1.829722181 1.7240926197 1.6393591329 3.0476902371 2.9654393563 2.8937201384 2.8312413375 2.7767288255 2.7290193058 
2.6870952876 2.6500882075 2.617266536 3.0476902371 2.9654393563 2.8937201384 2.8312413375 2.7767288255 2.7290193058 
2.6870952876 2.6500882075 2.617266536 1.5707963268 1.5707963268 1.5707963268 1.5707963268 1.5707963268 1.5707963268 
1.5707963268 1.5707963268 1.5707963268 1.6743954455 1.7840462375 1.8974821136 2.0119052671 2.1243706857 2.232221744 
2.3334263672 2.426721652 2.5115728246 1.4671972081 1.3575464161 1.24411054 1.1296873865 1.0172219679 0.90937090954 
0.80816628637 0.71487100155 0.63001982895 1.6743954455 1.7840462375 1.8974821136 2.0119052671 2.1243706857 2.232221744 
2.3334263672 2.426721652 2.5115728246 1.4671972081 1.3575464161 1.24411054 1.1296873865 1.0172219679 0.90937090954 
0.80816628637 0.71487100155 0.63001982895 1.5707963268 1.5707963268 1.5707963268 1.5707963268 1.5707963268 1.5707963268 
1.5707963268 1.5707963268 1.5707963268 1.6743954455 1.7840462375 1.8974821136 2.0119052671 2.1243706857 2.232221744 
2.3334263672 2.426721652 2.5115728246 1.4671972081 1.3575464161 1.24411054 1.1296873865 1.0172219679 0.90937090954 
0.80816628637 0.71487100155 0.63001982895 1.6743954455 1.7840462375 1.8974821136 2.0119052671 2.1243706857 2.232221744 
2.3334263672 2.426721652 2.5115728246 1.4671972081 1.3575464161 1.24411054 1.1296873865 1.0172219679 0.90937090954 
0.80816628637 0.71487100155 0.63001982895 2.6824132222 2.7864913217 2.8992382033 3.0186096618 3.1415926536 3.0186096618 
2.8992382033 2.7864913217 2.6824132222 0.45917943135 0.35510133185 0.2423544503 0.12298299178 0 0.12298299178 
0.2423544503 0.35510133185 0.45917943135 0.22715816343 0.49462574053 0.3129712797 0.77059342779 0.68021497688 0.49462574053 
1.0172219679 1.0172219679 1.0172219679 1.0172219679 1.2156949949 1.271087727 1.3676273807 1.5707963268 2.1243706857 
1.3676273807 1.447813335 1.5707963268 1.7739652728 2.1243706857 2.6469669131 1.4827341049 1.5707963268 1.6937793186 
1.8705049266 2.1243706857 2.4613776767 2.8286213739 1.5707963268 1.6588585487 1.7739652728 1.9258976586 2.1243706857 
2.3709992258 2.6469669131 2.9144344902 0.26576171152 0.33975332011 0.45685295248 0.40226393329 0.51573716537 0.6552068806 
0.45538277901 0.56421707518 0.69407236469 0.84594095064 0.50083690068 0.60464862014 0.72561863695 0.86392567495 1.0172219679 
0.54002084522 0.63877777351 0.75168694275 0.87851444325 1.0172219679 1.1636342747 0.57404952988 0.66790778838 0.77356233629 
0.89058134991 1.0172219679 1.1502619915 1.2852923014 0.60381225391 0.69302191562 0.79216440667 0.90072551443 1.0172219679 
1.139116835 1.2630228569 1.3852070904 0.71487100155 0.80816628637 0.80816628637 0.90937090954 0.90937090954 0.90937090954 
1.0172219679 1.0172219679 1.0172219679 1.0172219679 1.1296873865 1.1296873865 1.1296873865 1.1296873865 1.1296873865 
1.24411054 1.24411054 1.24411054 1.24411054 1.24411054 1.24411054 1.3575464161 1.3575464161 1.3575464161 
1.3575464161 1.3575464161 1.3575464161 1.3575464161 1.4671972081 1.4671972081 1.4671972081 1.4671972081 1.4671972081 
1.4671972081 1.4671972081 1.4671972081 1.6743954455 1.6743954455 1.7840462375 1.6743954455 1.7840462375 1.8974821136 
1.6743954455 1.7840462375 1.8974821136 2.0119052671 1.6743954455 1.7840462375 1.8974821136 2.0119052671 2.1243706857 
1.6743954455 1.7840462375 1.8974821136 2.0119052671 2.1243706857 2.232221744 1.6743954455 1.7840462375 1.8974821136 
2.0119052671 2.1243706857 2.232221744 2.3334263672 1.6743954455 1.7840462375 1.8974821136 2.0119052671 2.1243706857 
2.232221744 2.3334263672 2.426721652 1.7563855631 1.8785697967 1.8563003522 2.0024758186 1.9913306621 1.9779583789 
2.1243706857 2.1243706857 2.1243706857 2.1243706857 2.2408671392 2.2510113037 2.2630782103 2.2776669786 2.295651703 
2.3494282469 2.3680303173 2.3899057108 2.4159740166 2.4475202889 2.486385773 2.448570738 2.4736848652 2.5028148801 
2.5369440334 2.5773755784 2.6258554882 2.6847397011 2.5377803997 2.5675431237 2.6015718084 2.6407557529 2.6862098746 
2.7393287203 2.8018393335 2.8758309421 2.718901062 2.8307207459 2.7598010554 2.95115522 2.8800620952 2.8058000847 
3.0774230472 3.00855263 2.9351694502 2.8576792927 3.0774230472 3.1415926536 3.0719036933 2.9967168029 2.91630358 
2.95115522 3.00855263 3.0719036933 3.1415926536 3.0653475414 2.9825888767 2.8307207459 2.8800620952 2.9351694502 
2.9967168029 3.0653475414 3.1415926536 3.0574329311 2.718901062 2.7598010554 2.8058000847 2.8576792927 2.91630358 
2.9825888767 3.0574329311 3.1415926536 2.718901062 2.7598010554 2.8307207459 2.8058000847 2.8800620952 2.95115522 
2.8576792927 2.9351694502 3.00855263 3.0774230472 2.91630358 2.9967168029 3.0719036933 3.1415926536 3.0774230472 
2.9825888767 3.0653475414 3.1415926536 3.0719036933 3.00855263 2.95115522 3.0574329311 3.1415926536 3.0653475414 