# vtk DataFile Version 5.1
vtk output
ASCII
DATASET POLYDATA
POINTS 1002 float
-10.1469 -0.0292669 -3.22271 10.3462 -1.28757 -3.1012 -9.58505 0.991946 3.74487 
9.78959 -1.27784 1.76549 -2.59109 2.60194 -2.3501 -1.95131 1.99849 1.13207 
-0.867134 -6.36027 -2.08326 -0.865615 -7.16393 2.00094 17.9405 9.21214 1.4496 
-15.0136 7.74627 0.698853 16.9407 -1.46238 0.179725 -15.0217 -4.03185 0.0169924 
-8.96171 -0.290071 -3.24767 -7.56205 -0.675458 -3.29073 -5.92363 -1.18345 -3.27879 
-3.94975 -1.71414 -3.18326 -1.5417 -2.21889 -3.20144 1.17404 -2.64888 -3.44647 
3.89141 -2.78378 -3.63946 6.37714 -2.49367 -3.56567 8.53245 -1.93227 -3.34279 
-9.88203 0.509451 -3.31788 -9.5158 1.08962 -3.40489 -9.07188 1.68188 -3.46613 
-8.53638 2.23909 -3.46647 -7.77237 2.74523 -3.34817 -6.74688 3.18052 -3.11281 
-5.6818 3.45174 -2.86122 -4.7046 3.44533 -2.66723 -3.70077 3.13018 -2.50844 
-9.63458 -0.714268 -3.13952 -8.99165 -1.47426 -3.07164 -8.22155 -2.28122 -2.9663 
-7.33048 -3.04234 -2.76252 -6.30862 -3.72585 -2.53474 -5.1848 -4.38137 -2.37414 
-4.03494 -4.98168 -2.25095 -2.912 -5.48718 -2.15244 -1.84464 -5.94202 -2.10559 
-11.1176 0.563702 -3.25919 -12.1309 1.32215 -3.2025 -13.1712 2.27455 -2.99301 
-14.1581 3.31795 -2.7105 -14.9487 4.35093 -2.40204 -15.4182 5.35185 -1.97963 
-15.5726 6.24929 -1.41169 -15.5308 6.94616 -0.74341 -15.3524 7.4351 -0.0141379 
-10.9666 -0.239959 -3.15255 -11.8187 -0.500915 -3.05704 -12.6518 -0.799757 -2.8877 
-13.3733 -1.13759 -2.59587 -13.9915 -1.52591 -2.19879 -14.5324 -1.97175 -1.79605 
-14.914 -2.49348 -1.4447 -15.0984 -3.08257 -1.06338 -15.1238 -3.6357 -0.563649 
9.92348 -0.965175 -3.12329 9.29276 -0.689795 -3.17214 8.4213 -0.503237 -3.24554 
7.24088 -0.365514 -3.30293 5.70285 -0.24542 -3.29085 3.86977 -0.170467 -3.156 
1.90656 0.009217 -2.91424 0.0514968 0.565997 -2.67092 -1.47107 1.51002 -2.49276 
9.56871 -2.0193 -3.20565 8.61774 -2.73817 -3.24022 7.50833 -3.45228 -3.24378 
6.28926 -4.15132 -3.25803 5.0221 -4.75593 -3.19345 3.72989 -5.20827 -2.98362 
2.41476 -5.56095 -2.74867 1.15521 -5.87903 -2.55889 0.0578538 -6.15242 -2.34517 
11.8477 -0.306641 -2.81148 13.4448 0.936114 -2.41867 15.0385 2.41854 -2.00396 
16.4164 4.03906 -1.61402 17.4454 5.66284 -1.1795 18.1348 7.19802 -0.719602 
18.4924 8.52167 -0.301282 18.5334 9.3746 0.189463 18.3263 9.56755 0.822642 
11.5578 -1.06932 -2.9217 12.7367 -0.805517 -2.67612 13.899 -0.515523 -2.36288 
14.9765 -0.310235 -2.05139 15.8177 -0.243932 -1.75963 16.3842 -0.256863 -1.42555 
16.7714 -0.373575 -1.03375 17.0274 -0.663036 -0.618846 17.0984 -1.06196 -0.20676 
-8.45452 0.593373 3.75673 -7.13823 0.129755 3.72264 -5.59142 -0.489426 3.55262 
-3.77039 -1.26978 3.18985 -1.6663 -2.00238 2.76933 0.678055 -2.50887 2.33137 
3.16901 -2.72538 1.82391 5.63849 -2.55592 1.47546 7.88399 -2.01264 1.4991 
-9.14065 1.41835 3.62103 -8.60621 1.89865 3.50641 -7.99352 2.35031 3.34149 
-7.30506 2.69344 3.11222 -6.48874 2.92011 2.85904 -5.57322 3.00007 2.55079 
-4.66979 2.89574 2.1721 -3.79049 2.65842 1.7966 -2.88213 2.35052 1.45829 
-9.28846 0.351117 3.91371 -8.82204 -0.40067 4.00696 -8.11898 -1.36259 3.88601 
-7.18921 -2.46489 3.637 -6.07354 -3.55386 3.45737 -4.80869 -4.59002 3.32001 
-3.53858 -5.53325 3.09312 -2.45963 -6.27191 2.77344 -1.60549 -6.78828 2.40156 
-10.3962 1.66537 3.62312 -11.251 2.41458 3.47258 -12.1107 3.15626 3.25738 
-12.8892 3.89501 2.9904 -13.5653 4.70279 2.73108 -14.1296 5.53743 2.49151 
-14.5462 6.3088 2.21811 -14.84 6.97647 1.83635 -15.0157 7.47558 1.31053 
-10.5439 0.950866 3.76895 -11.6295 0.788898 3.67379 -12.7974 0.400801 3.4303 
-13.8951 -0.234803 3.05029 -14.746 -0.986453 2.55513 -15.2858 -1.72423 2.04018 
-15.5556 -2.46409 1.5874 -15.5902 -3.18921 1.11887 -15.3974 -3.74442 0.569409 
9.08019 -1.15136 1.68354 8.19273 -1.08244 1.56521 7.17132 -1.06283 1.36576 
5.97138 -1.00732 1.18786 4.54305 -0.804674 1.20879 3.021 -0.45773 1.33246 
1.57751 -0.0489767 1.32329 0.253422 0.461616 1.21837 -0.934739 1.16287 1.15845 
9.2417 -1.92545 1.6757 8.48239 -2.62938 1.6306 7.52062 -3.38125 1.59053 
6.42944 -4.14106 1.53093 5.21358 -4.84469 1.5349 3.84523 -5.42908 1.63412 
2.4418 -5.89427 1.73415 1.1751 -6.32324 1.81313 0.0882801 -6.76251 1.91335 
11.18 -0.314348 2.04716 12.6672 0.883344 2.36267 14.1742 2.27743 2.73607 
15.4482 3.70719 3.10285 16.367 5.03216 3.20903 17.0563 6.24338 3.01008 
17.5788 7.34636 2.77515 17.8952 8.27963 2.53552 18.0077 8.93398 2.0893 
11.2207 -0.879338 2.02034 12.5967 -0.492256 2.2627 13.9081 -0.196484 2.45844 
15.0929 -0.078552 2.55888 15.9966 -0.130223 2.45445 16.5367 -0.271319 2.12074 
16.8168 -0.51354 1.67326 16.9818 -0.859087 1.19493 17.0479 -1.19465 0.694186 
-2.4395 2.84995 -2.11618 -2.29644 2.96209 -1.79777 -2.20191 3.04601 -1.45053 
-2.1137 3.22479 -1.09182 -2.0265 3.3443 -0.690939 -1.99851 3.17014 -0.280896 
-2.00706 2.82654 0.109603 -1.99095 2.53765 0.502739 -1.96203 2.2865 0.862606 
-0.556759 1.44285 -2.31035 2.06513 0.867807 -2.32928 5.03896 1.17302 -2.26604 
8.07617 2.09416 -1.86439 10.918 3.31938 -1.12082 13.2144 4.74509 -0.398864 
14.8414 6.19282 0.07262 16.0728 7.4992 0.450276 17.1164 8.55945 0.918154 
-4.11654 4.15167 -2.30978 -5.4371 5.56754 -2.22665 -6.69093 6.48123 -2.00776 
-8.0164 7.00417 -1.61814 -9.3985 7.41971 -1.1619 -10.7127 7.75038 -0.788812 
-11.9674 7.97781 -0.471677 -13.2019 8.12835 -0.0936739 -14.267 8.08626 0.327191 
-0.257995 1.15669 0.818199 1.79685 0.642936 0.526573 4.16544 0.708773 0.341004 
6.87286 1.32815 0.359729 9.71523 2.4029 0.646068 12.1375 3.87697 1.1054 
13.9716 5.48853 1.49684 15.5302 6.96131 1.66899 16.8942 8.22967 1.63316 
-3.41163 3.19466 1.30881 -4.78326 4.49094 1.50872 -6.12543 5.73845 1.76053 
-7.51186 6.82579 1.98691 -8.89355 7.58589 1.99536 -10.1918 7.9979 1.80541 
-11.4845 8.23727 1.62289 -12.8308 8.33329 1.44493 -14.0685 8.17117 1.13599 
-0.839364 -6.69903 -1.85943 -0.852943 -7.01246 -1.56463 -0.917256 -7.35223 -1.21812 
-1.01668 -7.72874 -0.800591 -1.12994 -7.98661 -0.279337 -1.21956 -8.04108 0.303633 
-1.22408 -7.99745 0.871448 -1.129 -7.86609 1.36657 -0.991558 -7.57249 1.74268 
0.684925 -6.62113 -2.22893 2.47932 -6.78177 -2.34607 4.50735 -6.78545 -2.38399 
6.56431 -6.68587 -2.33052 8.49042 -6.45338 -2.19302 10.4953 -5.8242 -1.94094 
12.7146 -4.68833 -1.5098 14.7406 -3.39306 -0.927159 16.1359 -2.31216 -0.331861 
-2.36723 -6.3016 -1.83384 -4.01485 -6.27972 -1.62234 -5.68757 -6.26012 -1.42078 
-7.26372 -6.12461 -1.16079 -8.83504 -5.89764 -0.916302 -10.4097 -5.68529 -0.789781 
-11.7951 -5.4137 -0.679931 -12.9767 -5.01474 -0.480784 -14.0618 -4.55136 -0.232974 
0.566938 -7.23961 1.51745 2.37684 -7.20786 1.02392 4.52106 -7.02131 0.642017 
6.85436 -6.77435 0.439898 9.22225 -6.47858 0.43849 11.4253 -5.81524 0.559865 
13.3437 -4.67031 0.594157 14.9438 -3.42364 0.458716 16.1435 -2.3677 0.28733 
-2.26888 -7.29065 2.25868 -3.85672 -7.3521 2.36612 -5.67813 -7.29348 2.31547 
-7.61888 -7.04467 2.16807 -9.46301 -6.66393 1.96115 -11.0509 -6.24691 1.69626 
-12.3414 -5.77361 1.36431 -13.3875 -5.23406 0.948854 -14.2689 -4.65582 0.47615 
18.868 9.69227 1.60644 19.7304 9.41399 1.69975 20.4749 8.31093 1.71301 
20.8175 6.82209 1.6549 20.6363 5.38543 1.50371 20.1603 3.99747 1.2527 
19.4651 2.52641 0.972632 18.5688 1.02702 0.70533 17.7038 -0.333095 0.436667 
-15.7881 6.9533 0.580242 -16.4737 5.88716 0.44369 -17.1472 4.71226 0.307881 
-17.6883 3.49035 0.106186 -17.888 2.19648 -0.128279 -17.7568 0.826261 -0.247131 
-17.3977 -0.613934 -0.234742 -16.7999 -2.00514 -0.174995 -15.9691 -3.16063 -0.0909793 
-8.5811 0.217218 -3.34719 -8.11078 0.758678 -3.44267 -7.07741 -0.235419 -3.37098 
-7.56748 1.26717 -3.5123 -6.53216 0.231787 -3.42987 -5.32646 -0.840062 -3.31936 
-6.8272 1.65367 -3.50802 -5.83186 0.615592 -3.44324 -4.60908 -0.488152 -3.30964 
-3.09983 -1.47703 -3.22842 -5.79097 1.93236 -3.36169 -4.80319 0.803578 -3.38211 
-3.58342 -0.254953 -3.24222 -1.97601 -1.25772 -3.21059 -0.287382 -2.05049 -3.31806 
-4.68407 2.11377 -3.09168 -3.58035 0.845376 -3.22513 -2.26485 -0.194952 -3.17511 
-0.551154 -1.09149 -3.17038 1.25811 -1.83187 -3.34754 2.74615 -2.37641 -3.5497 
-3.69742 2.09786 -2.82172 -2.4316 0.797952 -3.00963 -0.916873 -0.188134 -3.13078 
0.924786 -0.901545 -3.21311 2.85033 -1.47238 -3.36809 4.41172 -1.90444 -3.5353 
5.52976 -2.22761 -3.60109 -2.67149 1.85524 -2.62871 -1.27074 0.673853 -2.81391 
0.438449 -0.135869 -3.05194 2.36004 -0.592805 -3.26018 4.29085 -0.921811 -3.40138 
5.90425 -1.20058 -3.47239 7.0689 -1.43351 -3.46341 7.90841 -1.67307 -3.40616 
-10.8762 1.20589 -3.3224 -11.8921 2.09824 -3.18478 -10.525 1.89212 -3.35421 
-12.8769 3.17692 -2.90547 -11.5021 2.91038 -3.13862 -10.0768 2.6083 -3.34115 
-13.7477 4.27938 -2.58076 -12.3509 4.06413 -2.80339 -10.9598 3.75861 -3.05684 
-9.49551 3.33203 -3.24003 -14.3729 5.32375 -2.17862 -13.0227 5.14911 -2.39049 
-11.5932 4.92213 -2.67601 -10.2251 4.55785 -2.91285 -8.62992 3.9735 -3.03814 
-14.6485 6.31038 -1.64505 -13.425 6.14795 -1.85888 -11.9913 5.9257 -2.17782 
-10.5935 5.61625 -2.53708 -9.1691 5.11989 -2.74445 -7.48014 4.42894 -2.82311 
-14.6548 7.1347 -1.0372 -13.5067 7.04356 -1.2769 -12.1532 6.82514 -1.57231 
-10.7275 6.50272 -2.00091 -9.32342 6.02456 -2.39845 -7.85751 5.45935 -2.59908 
-6.28911 4.66553 -2.6608 -14.5265 7.71748 -0.373517 -13.3982 7.70447 -0.704281 
-12.1088 7.53251 -0.999452 -10.7557 7.25861 -1.35782 -9.34959 6.81708 -1.82077 
-7.94283 6.30153 -2.22415 -6.56867 5.66868 -2.43989 -5.1883 4.60333 -2.5054 
-13.1321 8.38377 0.693294 -11.7791 8.47913 0.964957 -11.9452 8.31745 0.199391 
-10.411 8.44541 1.22434 -10.5914 8.41021 0.495343 -10.6958 8.09609 -0.210885 
-9.0691 8.23322 1.53429 -9.19969 8.42822 0.857336 -9.33243 8.14309 0.0903927 
-9.41367 7.79474 -0.562286 -7.67685 7.58913 1.69415 -7.75046 8.11721 1.17311 
-7.83548 8.09047 0.399503 -7.96686 7.77309 -0.358058 -8.0265 7.45743 -0.992467 
-6.28301 6.45249 1.53368 -6.35026 7.17553 1.19641 -6.36173 7.59417 0.584932 
-6.45729 7.56023 -0.196182 -6.591 7.33834 -0.873094 -6.64612 7.00859 -1.46114 
-4.92409 5.05937 1.23921 -5.02899 5.69705 0.942046 -5.04512 6.34316 0.528912 
[...]
POINT_DATA 1002
FIELD FieldData 4
_paraPhi 1 1002 double
6.2831853072 3.1415926536 6.2831853072 3.1415926536 4.7123889804 4.7123889804 1.5707963268 1.5707963268 3.6951670125 
5.7296109483 2.5880182947 0.5535743589 6.2831853072 6.2831853072 6.2831853072 6.2831853072 3.1415926536 3.1415926536 
3.1415926536 3.1415926536 3.1415926536 6.1053039672 5.898798347 5.6768734901 5.4599499503 5.2659633393 5.1032165617 
4.9713148346 4.8656852733 4.7809517865 0.17788134 0.38438696014 0.60631181711 0.82323535693 1.0172219679 1.1799687454 
1.3118704726 1.4175000338 1.5022335207 6.1892828907 6.1070320098 6.035312792 5.9728339911 5.9183214791 5.8706119594 
5.8286879411 5.7916808611 5.7588591896 0.093902416448 0.17615329733 0.2478725152 0.31035131605 0.36486382811 0.41257334776 
0.45449736604 0.4915044461 0.52432611754 3.3194739936 3.5259796137 3.7479044707 3.9648280105 4.1588146215 4.321561399 
4.4534631262 4.5590926874 4.6438261743 2.9637113136 2.7572056934 2.5352808365 2.3183572967 2.1243706857 1.9616239082 
1.829722181 1.7240926197 1.6393591329 3.23549507 3.3177459509 3.3894651688 3.4519439696 3.5064564817 3.5541660013 
3.5960900196 3.6330970997 3.6659187711 3.0476902371 2.9654393563 2.8937201384 2.8312413375 2.7767288255 2.7290193058 
2.6870952876 2.6500882075 2.617266536 6.2831853072 6.2831853072 6.2831853072 6.2831853072 3.1415926536 3.1415926536 
3.1415926536 3.1415926536 3.1415926536 6.1053039672 5.898798347 5.6768734901 5.4599499503 5.2659633393 5.1032165617 
4.9713148346 4.8656852733 4.7809517865 0.17788134 0.38438696014 0.60631181711 0.82323535693 1.0172219679 1.1799687454 
1.3118704726 1.4175000338 1.5022335207 6.1892828907 6.1070320098 6.035312792 5.9728339911 5.9183214791 5.8706119594 
5.8286879411 5.7916808611 5.7588591896 0.093902416448 0.17615329733 0.2478725152 0.31035131605 0.36486382811 0.41257334776 
0.45449736604 0.4915044461 0.52432611754 3.3194739936 3.5259796137 3.7479044707 3.9648280105 4.1588146215 4.321561399 
4.4534631262 4.5590926874 4.6438261743 2.9637113136 2.7572056934 2.5352808365 2.3183572967 2.1243706857 1.9616239082 
1.829722181 1.7240926197 1.6393591329 3.23549507 3.3177459509 3.3894651688 3.4519439696 3.5064564817 3.5541660013 
3.5960900196 3.6330970997 3.6659187711 3.0476902371 2.9654393563 2.8937201384 2.8312413375 2.7767288255 2.7290193058 
2.6870952876 2.6500882075 2.617266536 4.7123889804 4.7123889804 4.7123889804 4.7123889804 4.7123889804 4.7123889804 
4.7123889804 4.7123889804 4.7123889804 4.6087898617 4.4991390697 4.3857031936 4.2712800401 4.1588146215 4.0509635631 
3.94975894 3.8564636551 3.7716124825 4.8159880991 4.9256388911 5.0390747672 5.1534979207 5.2659633393 5.3738143976 
5.4750190208 5.5683143056 5.6531654782 4.6087898617 4.4991390697 4.3857031936 4.2712800401 4.1588146215 4.0509635631 
3.94975894 3.8564636551 3.7716124825 4.8159880991 4.9256388911 5.0390747672 5.1534979207 5.2659633393 5.3738143976 
5.4750190208 5.5683143056 5.6531654782 1.5707963268 1.5707963268 1.5707963268 1.5707963268 1.5707963268 1.5707963268 
1.5707963268 1.5707963268 1.5707963268 1.6743954455 1.7840462375 1.8974821136 2.0119052671 2.1243706857 2.232221744 
2.3334263672 2.426721652 2.5115728246 1.4671972081 1.3575464161 1.24411054 1.1296873865 1.0172219679 0.90937090954 
0.80816628637 0.71487100155 0.63001982895 1.6743954455 1.7840462375 1.8974821136 2.0119052671 2.1243706857 2.232221744 
2.3334263672 2.426721652 2.5115728246 1.4671972081 1.3575464161 1.24411054 1.1296873865 1.0172219679 0.90937090954 
0.80816628637 0.71487100155 0.63001982895 3.6007720849 3.4966939854 3.3839471039 3.2645756454 3.1415926536 3.0186096618 
2.8992382033 2.7864913217 2.6824132222 5.8240058758 5.9280839753 6.0408308569 6.1602023154 6.2831853072 0.12298299178 
0.2423544503 0.35510133185 0.45917943135 6.0560271438 5.7885595667 5.9702140275 5.5125918794 5.6029703303 5.7885595667 
5.2659633393 5.2659633393 5.2659633393 5.2659633393 5.0674903122 5.0120975802 4.9155579264 4.7123889804 4.1588146215 
4.9155579264 4.8353719722 4.7123889804 4.5092200343 4.1588146215 3.6362183941 4.8004512023 4.7123889804 4.5894059886 
4.4126803806 4.1588146215 3.8218076305 3.4545639333 4.7123889804 4.6243267584 4.5092200343 4.3572876485 4.1588146215 
3.9121860814 3.6362183941 3.368750817 6.0174235957 5.9434319871 5.8263323547 5.8809213739 5.7674481418 5.6279784266 
5.8278025282 5.718968232 5.5891129425 5.4372443565 5.7823484065 5.678536687 5.5575666702 5.4192596322 5.2659633393 
5.743164462 5.6444075337 5.5314983644 5.4046708639 5.2659633393 5.1195510325 5.7091357773 5.6152775188 5.5096229709 
5.3926039573 5.2659633393 5.1329233157 4.9978930058 5.6793730533 5.5901633916 5.4910209005 5.3824597928 5.2659633393 
5.1440684722 5.0201624502 4.8979782167 5.5683143056 5.4750190208 5.4750190208 5.3738143976 5.3738143976 5.3738143976 
5.2659633393 5.2659633393 5.2659633393 5.2659633393 5.1534979207 5.1534979207 5.1534979207 5.1534979207 5.1534979207 
5.0390747672 5.0390747672 5.0390747672 5.0390747672 5.0390747672 5.0390747672 4.9256388911 4.9256388911 4.9256388911 
4.9256388911 4.9256388911 4.9256388911 4.9256388911 4.8159880991 4.8159880991 4.8159880991 4.8159880991 4.8159880991 
4.8159880991 4.8159880991 4.8159880991 4.6087898617 4.6087898617 4.4991390697 4.6087898617 4.4991390697 4.3857031936 
4.6087898617 4.4991390697 4.3857031936 4.2712800401 4.6087898617 4.4991390697 4.3857031936 4.2712800401 4.1588146215 
4.6087898617 4.4991390697 4.3857031936 4.2712800401 4.1588146215 4.0509635631 4.6087898617 4.4991390697 4.3857031936 
4.2712800401 4.1588146215 4.0509635631 3.94975894 4.6087898617 4.4991390697 4.3857031936 4.2712800401 4.1588146215 
4.0509635631 3.94975894 3.8564636551 4.526799744 4.4046155105 4.426884955 4.2807094886 4.2918546451 4.3052269283 
4.1588146215 4.1588146215 4.1588146215 4.1588146215 4.042318168 4.0321740035 4.0201070968 4.0055183285 3.9875336042 
3.9337570603 3.9151549899 3.8932795963 3.8672112905 3.8356650183 3.7967995342 3.8346145692 3.809500442 3.7803704271 
3.7462412737 3.7058097288 3.657329819 3.5984456061 3.7454049075 3.7156421835 3.6816134988 3.6424295543 3.5969754326 
3.5438565869 3.4813459737 3.4073543651 3.5642842451 3.4524645613 3.5233842518 3.3320300872 3.403123212 3.4773852225 
3.20576226 3.2746326772 3.348015857 3.4255060145 3.0774230472 3.1415926536 3.2112816139 3.2864685043 3.3668817272 
2.95115522 3.00855263 3.0719036933 3.1415926536 3.2178377658 3.3005964304 2.8307207459 2.8800620952 2.9351694502 
2.9967168029 3.0653475414 3.1415926536 3.225752376 2.718901062 2.7598010554 2.8058000847 2.8576792927 2.91630358 
2.9825888767 3.0574329311 3.1415926536 3.5642842451 3.5233842518 3.4524645613 3.4773852225 3.403123212 3.3320300872 
3.4255060145 3.348015857 3.2746326772 3.20576226 3.3668817272 3.2864685043 3.2112816139 3.1415926536 3.0774230472 
3.3005964304 3.2178377658 3.1415926536 3.0719036933 3.00855263 2.95115522 3.225752376 3.1415926536 3.0653475414 
2.9967168029 2.9351694502 2.8800620952 2.8307207459 3.1415926536 3.0574329311 2.9825888767 2.91630358 2.8576792927 
2.8058000847 2.7598010554 2.718901062 4.526799744 4.426884955 4.4046155105 4.3052269283 4.2918546451 4.2807094886 
4.1588146215 4.1588146215 4.1588146215 4.1588146215 3.9875336042 4.0055183285 4.0201070968 4.0321740035 4.042318168 
3.7967995342 3.8356650183 3.8672112905 3.8932795963 3.9151549899 3.9337570603 3.5984456061 3.657329819 3.7058097288 
3.7462412737 3.7803704271 3.809500442 3.8346145692 3.4073543651 3.4813459737 3.5438565869 3.5969754326 3.6424295543 
3.6816134988 3.7156421835 3.7454049075 4.7123889804 4.8004512023 4.6243267584 4.9155579264 4.7123889804 4.5092200343 
5.0674903122 4.8353719722 4.5894059886 4.3572876485 5.2659633393 5.0120975802 4.7123889804 4.4126803806 4.1588146215 
5.5125918794 5.2659633393 4.9155579264 4.5092200343 4.1588146215 3.9121860814 5.7885595667 5.6029703303 5.2659633393 
4.7123889804 4.1588146215 3.8218076305 3.6362183941 6.0560271438 5.9702140275 5.7885595667 5.2659633393 4.1588146215 
3.6362183941 3.4545639333 3.368750817 0.22715816343 0.49462574053 0.3129712797 0.77059342779 0.68021497688 0.49462574053 
1.0172219679 1.0172219679 1.0172219679 1.0172219679 1.2156949949 1.271087727 1.3676273807 1.5707963268 2.1243706857 
1.3676273807 1.447813335 1.5707963268 1.7739652728 2.1243706857 2.6469669131 1.4827341049 1.5707963268 1.6937793186 
1.8705049266 2.1243706857 2.4613776767 2.8286213739 1.5707963268 1.6588585487 1.7739652728 1.9258976586 2.1243706857 
2.3709992258 2.6469669131 2.9144344902 1.7563855631 1.8785697967 1.8563003522 2.0024758186 1.9913306621 1.9779583789 
2.1243706857 2.1243706857 2.1243706857 2.1243706857 2.2408671392 2.2510113037 2.2630782103 2.2776669786 2.295651703 
2.3494282469 2.3680303173 2.3899057108 2.4159740166 2.4475202889 2.486385773 2.448570738 2.4736848652 2.5028148801 
2.5369440334 2.5773755784 2.6258554882 2.6847397011 2.5377803997 2.5675431237 2.6015718084 2.6407557529 2.6862098746 
2.7393287203 2.8018393335 2.8758309421 1.6743954455 1.6743954455 1.7840462375 1.6743954455 1.7840462375 1.8974821136 
1.6743954455 1.7840462375 1.8974821136 2.0119052671 1.6743954455 1.7840462375 1.8974821136 2.0119052671 2.1243706857 
1.6743954455 1.7840462375 1.8974821136 2.0119052671 2.1243706857 2.232221744 1.6743954455 1.7840462375 1.8974821136 
2.0119052671 2.1243706857 2.232221744 2.3334263672 1.6743954455 1.7840462375 1.8974821136 2.0119052671 2.1243706857 
2.232221744 2.3334263672 2.426721652 1.4671972081 1.3575464161 1.4671972081 1.24411054 1.3575464161 1.4671972081 
1.1296873865 1.24411054 1.3575464161 1.4671972081 1.0172219679 1.1296873865 1.24411054 1.3575464161 1.4671972081 
0.90937090954 1.0172219679 1.1296873865 1.24411054 1.3575464161 1.4671972081 0.80816628637 0.90937090954 1.0172219679 
1.1296873865 1.24411054 1.3575464161 1.4671972081 0.71487100155 0.80816628637 0.90937090954 1.0172219679 1.1296873865 
1.24411054 1.3575464161 1.4671972081 0.60381225391 0.57404952988 0.69302191562 0.54002084522 0.66790778838 0.79216440667 
0.50083690068 0.63877777351 0.77356233629 0.90072551443 0.45538277901 0.60464862014 0.75168694275 0.89058134991 1.0172219679 
0.40226393329 0.56421707518 0.72561863695 0.87851444325 1.0172219679 1.139116835 0.33975332011 0.51573716537 0.69407236469 
0.86392567495 1.0172219679 1.1502619915 1.2630228569 0.26576171152 0.45685295248 0.6552068806 0.84594095064 1.0172219679 
1.1636342747 1.2852923014 1.3852070904 0.22715816343 0.3129712797 0.49462574053 0.49462574053 0.68021497688 0.77059342779 
1.0172219679 1.0172219679 1.0172219679 1.0172219679 2.1243706857 1.5707963268 1.3676273807 1.271087727 1.2156949949 
2.6469669131 2.1243706857 1.7739652728 1.5707963268 1.447813335 1.3676273807 2.8286213739 2.4613776767 2.1243706857 
1.8705049266 1.6937793186 1.5707963268 1.4827341049 2.9144344902 2.6469669131 2.3709992258 2.1243706857 1.9258976586 
1.7739652728 1.6588585487 1.5707963268 1.7563855631 1.8563003522 1.8785697967 1.9779583789 1.9913306621 2.0024758186 
2.1243706857 2.1243706857 2.1243706857 2.1243706857 2.295651703 2.2776669786 2.2630782103 2.2510113037 2.2408671392 
2.486385773 2.4475202889 2.4159740166 2.3899057108 2.3680303173 2.3494282469 2.6847397011 2.6258554882 2.5773755784 
2.5369440334 2.5028148801 2.4736848652 2.448570738 2.8758309421 2.8018393335 2.7393287203 2.6862098746 2.6407557529 
2.6015718084 2.5675431237 2.5377803997 5.8604937156 5.901393709 5.9723133995 5.9473927383 6.0216547488 6.0927478736 
5.9992719463 6.0767621038 6.1501452836 6.2190157008 6.0578962336 6.1383094565 6.2134963469 0 0.064169606361 
6.1241815303 6.206940195 6.2831853072 0.069688960264 0.13304002361 0.19043743361 6.1990255847 0 0.07624511221 
0.14487585072 0.20642320337 0.26153055843 0.3108719077 0 0.084159722458 0.15900377685 0.22528907359 0.28391336087 
0.3357925689 0.38179159818 0.42269159155 5.8604937156 5.9723133995 5.901393709 6.0927478736 6.0216547488 5.9473927383 
6.2190157008 6.1501452836 6.0767621038 5.9992719463 0.064169606361 0 6.2134963469 6.1383094565 6.0578962336 
0.19043743361 0.13304002361 0.069688960264 6.2831853072 6.206940195 6.1241815303 0.3108719077 0.26153055843 0.20642320337 
0.14487585072 0.07624511221 6.2831853072 6.1990255847 0.42269159155 0.38179159818 0.3357925689 0.28391336087 0.22528907359 
0.15900377685 0.084159722458 0 5.6793730533 5.7091357773 5.5901633916 5.743164462 5.6152775188 5.4910209005 
5.7823484065 5.6444075337 5.5096229709 5.3824597928 5.8278025282 5.678536687 5.5314983644 5.3926039573 5.2659633393 
5.8809213739 5.718968232 5.5575666702 5.4046708639 5.2659633393 5.1440684722 5.9434319871 5.7674481418 5.5891129425 
5.4192596322 5.2659633393 5.1329233157 5.0201624502 6.0174235957 5.8263323547 5.6279784266 5.4372443565 5.2659633393 
5.1195510325 4.9978930058 4.8979782167 1.3852070904 1.2852923014 1.2630228569 1.1636342747 1.1502619915 1.139116835 
1.0172219679 1.0172219679 1.0172219679 1.0172219679 0.84594095064 0.86392567495 0.87851444325 0.89058134991 0.90072551443 
0.6552068806 0.69407236469 0.72561863695 0.75168694275 0.77356233629 0.79216440667 0.45685295248 0.51573716537 0.56421707518 
0.60464862014 0.63877777351 0.66790778838 0.69302191562 0.26576171152 0.33975332011 0.40226393329 0.45538277901 0.50083690068 
0.54002084522 0.57404952988 0.60381225391 
_paraPhiHalf 1 1002 double
0 3.1415926536 0 3.1415926536 1.5707963268 1.5707963268 1.5707963268 1.5707963268 2.5880182947 
0.5535743589 2.5880182947 0.5535743589 0 0 0 0 3.1415926536 3.1415926536 
3.1415926536 3.1415926536 3.1415926536 0.17788134 0.38438696014 0.60631181711 0.82323535693 1.0172219679 1.1799687454 
1.3118704726 1.4175000338 1.5022335207 0.17788134 0.38438696014 0.60631181711 0.82323535693 1.0172219679 1.1799687454 
1.3118704726 1.4175000338 1.5022335207 0.093902416448 0.17615329733 0.2478725152 0.31035131605 0.36486382811 0.41257334776 
0.45449736604 0.4915044461 0.52432611754 0.093902416448 0.17615329733 0.2478725152 0.31035131605 0.36486382811 0.41257334776 
0.45449736604 0.4915044461 0.52432611754 2.9637113136 2.7572056934 2.5352808365 2.3183572967 2.1243706857 1.9616239082 
1.829722181 1.7240926197 1.6393591329 2.9637113136 2.7572056934 2.5352808365 2.3183572967 2.1243706857 1.9616239082 
1.829722181 1.7240926197 1.6393591329 3.0476902371 2.9654393563 2.8937201384 2.8312413375 2.7767288255 2.7290193058 
2.6870952876 2.6500882075 2.617266536 3.0476902371 2.9654393563 2.8937201384 2.8312413375 2.7767288255 2.7290193058 
2.6870952876 2.6500882075 2.617266536 0 0 0 0 3.1415926536 3.1415926536 
3.1415926536 3.1415926536 3.1415926536 0.17788134 0.38438696014 0.60631181711 0.82323535693 1.0172219679 1.1799687454 
1.3118704726 1.4175000338 1.5022335207 0.17788134 0.38438696014 0.60631181711 0.82323535693 1.0172219679 1.1799687454 
1.3118704726 1.4175000338 1.5022335207 0.093902416448 0.17615329733 0.2478725152 0.31035131605 0.36486382811 0.41257334776 
0.45449736604 0.4915044461 0.52432611754 0.093902416448 0.17615329733 0.2478725152 0.31035131605 0.36486382811 0.41257334776 
0.45449736604 0.4915044461 0.52432611754 2.9637113136 2.7572056934 2.5352808365 2.3183572967 2.1243706857 1.9616239082 
1.829722181 1.7240926197 1.6393591329 2.9637113136 2.7572056934 2.5352808365 2.3183572967 2.1243706857 1.9616239082 
1.829722181 1.7240926197 1.6393591329 3.0476902371 2.9654393563 2.8937201384 2.8312413375 2.7767288255 2.7290193058 
2.6870952876 2.6500882075 2.617266536 3.0476902371 2.9654393563 2.8937201384 2.8312413375 2.7767288255 2.7290193058 
2.6870952876 2.6500882075 2.617266536 1.5707963268 1.5707963268 1.5707963268 1.5707963268 1.5707963268 1.5707963268 
1.5707963268 1.5707963268 1.5707963268 1.6743954455 1.7840462375 1.8974821136 2.0119052671 2.1243706857 2.232221744 
2.3334263672 2.426721652 2.5115728246 1.4671972081 1.3575464161 1.24411054 1.1296873865 1.0172219679 0.90937090954 
0.80816628637 0.71487100155 0.63001982895 1.6743954455 1.7840462375 1.8974821136 2.0119052671 2.1243706857 2.232221744 
2.3334263672 2.426721652 2.5115728246 1.4671972081 1.3575464161 1.24411054 1.1296873865 1.0172219679 0.90937090954 
0.80816628637 0.71487100155 0.63001982895 1.5707963268 1.5707963268 1.5707963268 1.5707963268 1.5707963268 1.5707963268 
1.5707963268 1.5707963268 1.5707963268 1.6743954455 1.7840462375 1.8974821136 2.0119052671 2.1243706857 2.232221744 
2.3334263672 2.426721652 2.5115728246 1.4671972081 1.3575464161 1.24411054 1.1296873865 1.0172219679 0.90937090954 
0.80816628637 0.71487100155 0.63001982895 1.6743954455 1.7840462375 1.8974821136 2.0119052671 2.1243706857 2.232221744 
2.3334263672 2.426721652 2.5115728246 1.4671972081 1.3575464161 1.24411054 1.1296873865 1.0172219679 0.90937090954 
0.80816628637 0.71487100155 0.63001982895 2.6824132222 2.7864913217 2.8992382033 3.0186096618 3.1415926536 3.0186096618 
2.8992382033 2.7864913217 2.6824132222 0.45917943135 0.35510133185 0.2423544503 0.12298299178 0 0.12298299178 
0.2423544503 0.35510133185 0.45917943135 0.22715816343 0.49462574053 0.3129712797 0.77059342779 0.68021497688 0.49462574053 
1.0172219679 1.0172219679 1.0172219679 1.0172219679 1.2156949949 1.271087727 1.3676273807 1.5707963268 2.1243706857 
1.3676273807 1.447813335 1.5707963268 1.7739652728 2.1243706857 2.6469669131 1.4827341049 1.5707963268 1.6937793186 
1.8705049266 2.1243706857 2.4613776767 2.8286213739 1.5707963268 1.6588585487 1.7739652728 1.9258976586 2.1243706857 
2.3709992258 2.6469669131 2.9144344902 0.26576171152 0.33975332011 0.45685295248 0.40226393329 0.51573716537 0.6552068806 
0.45538277901 0.56421707518 0.69407236469 0.84594095064 0.50083690068 0.60464862014 0.72561863695 0.86392567495 1.0172219679 
0.54002084522 0.63877777351 0.75168694275 0.87851444325 1.0172219679 1.1636342747 0.57404952988 0.66790778838 0.77356233629 
0.89058134991 1.0172219679 1.1502619915 1.2852923014 0.60381225391 0.69302191562 0.79216440667 0.90072551443 1.0172219679 
1.139116835 1.2630228569 1.3852070904 0.71487100155 0.80816628637 0.80816628637 0.90937090954 0.90937090954 0.90937090954 
1.0172219679 1.0172219679 1.0172219679 1.0172219679 1.1296873865 1.1296873865 1.1296873865 1.1296873865 1.1296873865 
1.24411054 1.24411054 1.24411054 1.24411054 1.24411054 1.24411054 1.3575464161 1.3575464161 1.3575464161 
1.3575464161 1.3575464161 1.3575464161 1.3575464161 1.4671972081 1.4671972081 1.4671972081 1.4671972081 1.4671972081 
1.4671972081 1.4671972081 1.4671972081 1.6743954455 1.6743954455 1.7840462375 1.6743954455 1.7840462375 1.8974821136 
1.6743954455 1.7840462375 1.8974821136 2.0119052671 1.6743954455 1.7840462375 1.8974821136 2.0119052671 2.1243706857 
1.6743954455 1.7840462375 1.8974821136 2.0119052671 2.1243706857 2.232221744 1.6743954455 1.7840462375 1.8974821136 
2.0119052671 2.1243706857 2.232221744 2.3334263672 1.6743954455 1.7840462375 1.8974821136 2.0119052671 2.1243706857 
2.232221744 2.3334263672 2.426721652 1.7563855631 1.8785697967 1.8563003522 2.0024758186 1.9913306621 1.9779583789 
2.1243706857 2.1243706857 2.1243706857 2.1243706857 2.2408671392 2.2510113037 2.2630782103 2.2776669786 2.295651703 
2.3494282469 2.3680303173 2.3899057108 2.4159740166 2.4475202889 2.486385773 2.448570738 2.4736848652 2.5028148801 
2.5369440334 2.5773755784 2.6258554882 2.6847397011 2.5377803997 2.5675431237 2.6015718084 2.6407557529 2.6862098746 
2.7393287203 2.8018393335 2.8758309421 2.718901062 2.8307207459 2.7598010554 2.95115522 2.8800620952 2.8058000847 
3.0774230472 3.00855263 2.9351694502 2.8576792927 3.0774230472 3.1415926536 3.0719036933 2.9967168029 2.91630358 
2.95115522 3.00855263 3.0719036933 3.1415926536 3.0653475414 2.9825888767 2.8307207459 2.8800620952 2.9351694502 
2.9967168029 3.0653475414 3.1415926536 3.0574329311 2.718901062 2.7598010554 2.8058000847 2.8576792927 2.91630358 
2.9825888767 3.0574329311 3.1415926536 2.718901062 2.7598010554 2.8307207459 2.8058000847 2.8800620952 2.95115522 
2.8576792927 2.9351694502 3.00855263 3.0774230472 2.91630358 2.9967168029 3.0719036933 3.1415926536 3.0774230472 
2.9825888767 3.0653475414 3.1415926536 3.0719036933 3.00855263 2.95115522 3.0574329311 3.1415926536 3.0653475414 