# vtk DataFile Version 5.1
vtk output
ASCII
DATASET POLYDATA
POINTS 100 float
-4.0225 4.65433 1.43262 -4.0286 4.64732 1.42931 -4.04737 4.6245 1.42381 
-4.07954 4.58611 1.4167 -4.12607 4.53247 1.40886 -4.18788 4.46387 1.40128 
-4.26556 4.38054 1.39502 -4.35909 4.28254 1.391 -4.46773 4.16976 1.38994 
-4.59 4.04202 1.39226 -4.72386 3.89909 1.39808 -4.86694 3.74092 1.40725 
-5.01689 3.56772 1.41935 -5.17177 3.3801 1.4338 -5.33028 3.17916 1.44993 
-5.49197 2.9664 1.46704 -5.65724 2.74367 1.48441 -5.82723 2.51299 1.50139 
-6.00355 2.2763 1.51734 -6.18799 2.03526 1.53167 -6.38215 1.7911 1.54383 
-6.58719 1.54445 1.55328 -6.80366 1.29538 1.55956 -7.03146 1.04345 1.56227 
-7.26991 0.78791 1.56114 -7.51797 0.527878 1.55603 -7.77445 0.262602 1.547 
-8.03826 -0.00836389 1.53425 -8.3086 -0.285035 1.51815 -8.58506 -0.566961 1.49914 
-8.86761 -0.853282 1.4777 -9.15653 -1.14287 1.45429 -9.45224 -1.4345 1.42924 
-9.75516 -1.72705 1.40276 -10.0656 -2.01965 1.37493 -10.3836 -2.31176 1.34576 
-10.7093 -2.60325 1.31519 -11.0423 -2.89431 1.28325 -11.3829 -3.18541 1.25009 
-11.731 -3.47719 1.21603 -12.0874 -3.77041 1.18158 -12.4529 -4.06591 1.14739 
-12.8287 -4.36472 1.11413 -13.216 -4.66811 1.0824 -13.6157 -4.9778 1.05253 
-14.0283 -5.29607 1.02446 -14.4534 -5.62589 0.997666 -14.8893 -5.97087 0.971113 
-15.3336 -6.33522 0.943312 -15.7824 -6.7234 0.91247 -16.2312 -7.13978 0.87668 
-16.675 -7.5882 0.834172 -17.1088 -8.07148 0.783549 -17.5281 -8.59101 0.723993 
-17.9291 -9.14653 0.655388 -18.3089 -9.73598 0.578357 -18.6661 -10.3557 0.494185 
-18.9999 -11.0006 0.40465 -19.3106 -11.6649 0.311781 -19.5989 -12.3427 0.21759 
-19.8657 -13.0281 0.123798 -20.1116 -13.7165 0.0316317 -20.3372 -14.4042 -0.0583212 
-20.5426 -15.0891 -0.146141 -20.7274 -15.7704 -0.232515 -20.8911 -16.4482 -0.31859 
-21.0332 -17.1234 -0.405771 -21.1536 -17.7967 -0.495497 -21.2523 -18.4687 -0.589035 
-21.3299 -19.1392 -0.687322 -21.3875 -19.807 -0.790876 -21.4268 -20.4698 -0.899772 
-21.4494 -21.1246 -1.0137 -21.4573 -21.7679 -1.13204 -21.4523 -22.3961 -1.25402 
-21.4362 -23.0058 -1.37878 -21.4104 -23.5945 -1.50548 -21.3764 -24.1606 -1.63336 
-21.3354 -24.7036 -1.76168 -21.289 -25.2239 -1.88973 -21.2388 -25.7225 -2.01669 
-21.1869 -26.2008 -2.14162 -21.1356 -26.6602 -2.26334 -21.0877 -27.1015 -2.38045 
-21.0458 -27.5247 -2.49134 -21.0126 -27.9288 -2.59427 -20.9903 -28.3121 -2.68752 
-20.9804 -28.6718 -2.76953 -20.9836 -29.0052 -2.83907 -20.9997 -29.3091 -2.89542 
-21.0274 -29.5809 -2.93845 -21.0648 -29.819 -2.96871 -21.1089 -30.0226 -2.98738 
-21.1566 -30.192 -2.99625 -21.2043 -30.3286 -2.99748 -21.2487 -30.4346 -2.99352 
-21.2867 -30.5129 -2.98678 -21.3155 -30.5662 -2.97947 -21.3334 -30.5967 -2.97335 
-21.3391 -30.6061 -2.96958 
LINES 2 100
OFFSETS vtktypeint64
0 100 
CONNECTIVITY vtktypeint64
0 1 2 3 4 5 6 7 8 
9 10 11 12 13 14 15 16 17 
18 19 20 21 22 23 24 25 26 
27 28 29 30 31 32 33 34 35 
36 37 38 39 40 41 42 43 44 
45 46 47 48 49 50 51 52 53 
54 55 56 57 58 59 60 61 62 
63 64 65 66 67 68 69 70 71 
72 73 74 75 76 77 78 79 80 
81 82 83 84 85 86 87 88 89 
90 91 92 93 94 95 96 97 98 
99 
POINT_DATA 100
FIELD FieldData 3
_theta 1 100 double
0 0.031733259127 0.063466518254 0.095199777382 0.12693303651 0.15866629564 0.19039955476 0.22213281389 0.25386607302 
0.28559933214 0.31733259127 0.3490658504 0.38079910953 0.41253236865 0.44426562778 0.47599888691 0.50773214603 0.53946540516 
0.57119866429 0.60293192342 0.63466518254 0.66639844167 0.6981317008 0.72986495992 0.76159821905 0.79333147818 0.82506473731 
0.85679799643 0.88853125556 0.92026451469 0.95199777382 0.98373103294 1.0154642921 1.0471975512 1.0789308103 1.1106640695 
1.1423973286 1.1741305877 1.2058638468 1.237597106 1.2693303651 1.3010636242 1.3327968833 1.3645301425 1.3962634016 
1.4279966607 1.4597299198 1.491463179 1.5231964381 1.5549296972 1.5866629564 1.6183962155 1.6501294746 1.6818627337 
1.7135959929 1.745329252 1.7770625111 1.8087957702 1.8405290294 1.8722622885 1.9039955476 1.9357288068 1.9674620659 
1.999195325 2.0309285841 2.0626618433 2.0943951024 2.1261283615 2.1578616206 2.1895948798 2.2213281389 2.253061398 
2.2847946572 2.3165279163 2.3482611754 2.3799944345 2.4117276937 2.4434609528 2.4751942119 2.506927471 2.5386607302 
2.5703939893 2.6021272484 2.6338605076 2.6655937667 2.6973270258 2.7290602849 2.7607935441 2.7925268032 2.8242600623 
2.8559933214 2.8877265806 2.9194598397 2.9511930988 2.982926358 3.0146596171 3.0463928762 3.0781261353 3.1098593945 
3.1415926536 
_radius 1 100 double
9.8603806503e-15 0.28578714725 0.57150914702 0.85702448277 1.1420536372 1.426039768 1.7080062409 1.9864822779 2.259554004 
2.5250504986 2.7808192966 3.0250108602 3.2562910673 3.4739309048 3.6777665787 3.8680616282 4.045322575 4.2101194357 
4.3629489336 4.5041605849 4.6339501182 4.7524126698 4.8596389911 4.9558307097 5.0414063733 5.1170706617 5.1838260602 
5.242918127 5.2957184852 5.3435600271 5.3875452832 5.4283531419 5.4660728855 5.5000967673 5.5290990555 5.5511172727 
5.563731631 5.5643179158 5.5503350456 5.519605532 5.4705542157 5.4023834545 5.3151759957 5.2099261037 5.0885041542 
4.9535617747 4.8083867532 4.6567209831 4.5025599018 4.3499559729 4.20284893 4.0649382912 3.9395960045 3.8297903497 
3.7379678811 3.665843604 3.6141117175 3.5822034965 3.5682852204 3.5695875513 3.5829490471 3.6053458749 3.6342360479 
3.6676659797 3.7041792754 3.7426155684 3.7818972096 3.8208782004 3.8582845116 3.8927308596 3.9227779489 3.94700114 
3.9640627422 3.9727958267 3.9723055768 3.9620754857 3.9420411778 3.9125807388 3.8743819901 3.8281866598 3.7744629403 
3.7130949078 3.6431801037 3.5629951892 3.4701415092 3.3618395498 3.2353156934 3.0882145227 2.9189679067 2.7270560219 
2.5131096815 2.2788315375 2.0267526077 1.7598800749 1.4813197746 1.1939612801 0.90028976436 0.6023424959 0.3017781829 
2.7513853975e-14 
_area 1 100 double
0 0.24336670809 0.97172485523 2.179256162 3.8543416805 5.9769788284 8.5160322355 11.427441091 14.654619508 
18.131828857 21.790279523 25.565509332 29.403813301 33.265671408 37.125247434 40.966554614 44.778009595 48.547314858 
52.258000933 55.888029113 59.41010516 62.793034928 66.00359448 69.008831051 71.779071849 74.291772411 76.535655691 
78.513893287 80.244982668 81.760618006 83.100780955 84.306849629 85.413435302 86.439234847 87.377367439 88.187287053 
88.79245128 89.087464994 88.954493778 88.284733637 86.999425147 85.065764625 82.504807285 79.390321271 75.839003281 
71.993735836 68.003328901 64.003888974 60.106870886 56.396363269 52.93474815 49.773610763 46.96611046 44.575740425 
42.67054957 41.291048684 40.417769444 39.982315888 39.898325622 40.079036156 40.44491706 40.930233721 41.490096007 
42.104423533 42.771900313 43.487605712 44.213493529 44.873196888 45.381904205 45.681229049 45.75579713 45.630153593 
45.351355113 44.96495296 44.494756344 43.935915485 43.26414294 42.454759997 41.499706249 40.412129745 39.216233596 
37.929349014 36.546975632 35.03844473 33.354319119 31.441101198 29.257321728 26.786629094 24.045474616 21.084590451 
17.984786142 14.848435704 11.788403626 8.9164521679 6.3333426145 4.1223772898 2.3469545046 1.0514543541 0.26405699426 
8.1514428665e-14 
