# vtk DataFile Version 5.1
vtk output
ASCII
DATASET POLYDATA
POINTS 1002 float
-10.3081 0.996214 -2.07282 -25.8436 -13.4343 -2.73549 -8.70543 -1.43694 4.28432 
-24.7628 -14.7839 1.86126 -14.0839 -6.76067 -2.37402 -14.659 -7.69189 0.866357 
-20.6702 -2.43347 0.103399 -20.4057 -2.28439 4.14248 -25.3249 -25.1176 -1.85232 
-1.00942 -1.23278 0.0137029 -30.1499 -18.3468 0.281076 -9.42556 6.53266 2.50094 
-11.3036 0.26055 -2.13665 -12.4537 -0.4939 -2.24274 -13.7988 -1.33529 -2.29064 
-15.417 -2.51394 -2.20758 -17.4227 -4.10381 -2.16168 -19.6851 -5.92813 -2.2894 
-21.7434 -7.88176 -2.47087 -23.3552 -9.8619 -2.60835 -24.6785 -11.7185 -2.70141 
-10.1389 0.454271 -2.31671 -9.99058 -0.156457 -2.6102 -9.89796 -0.836358 -2.93153 
-9.93343 -1.59945 -3.19295 -10.1497 -2.53178 -3.31514 -10.5454 -3.66311 -3.29953 
-11.1212 -4.75607 -3.18168 -11.91 -5.56955 -2.96885 -12.9232 -6.17164 -2.6774 
-11.1042 1.03899 -1.85217 -12.0217 1.01576 -1.59889 -13.0905 0.91416 -1.35133 
-14.2686 0.695375 -1.12278 -15.4794 0.322511 -0.872774 -16.6688 -0.177133 -0.606149 
-17.7964 -0.743029 -0.377364 -18.8377 -1.33089 -0.190478 -19.7949 -1.90146 -0.028015 
-9.18383 1.36027 -2.16263 -7.87663 1.63034 -2.19817 -6.46682 1.75027 -2.12767 
-5.10176 1.70735 -1.98313 -3.85299 1.50749 -1.84342 -2.7782 1.13026 -1.666 
-1.9631 0.587359 -1.33904 -1.40976 -0.0328131 -0.885346 -1.08866 -0.649908 -0.415789 
-9.85193 1.77403 -1.89849 -9.43315 2.54814 -1.65119 -9.05698 3.27566 -1.27889 
-8.76671 3.98771 -0.823788 -8.6431 4.68623 -0.349606 -8.64727 5.32254 0.123172 
-8.71106 5.84364 0.612999 -8.8802 6.21993 1.17932 -9.1524 6.44977 1.8355 
-25.1952 -13.2064 -2.79599 -24.3872 -12.8217 -2.86181 -23.5107 -12.3223 -2.97174 
-22.5961 -11.7546 -3.06996 -21.469 -10.9813 -3.02604 -19.9825 -9.84391 -2.81928 
-18.356 -8.57618 -2.58659 -16.8659 -7.60507 -2.43882 -15.4762 -7.04906 -2.37858 
-25.6694 -12.5431 -2.61264 -25.3887 -11.5711 -2.41563 -25.0236 -10.3767 -2.19821 
-24.5296 -8.97474 -1.97229 -23.8765 -7.63221 -1.68653 -23.1632 -6.4437 -1.32833 
-22.4811 -5.26383 -0.960449 -21.8254 -4.12544 -0.619781 -21.2097 -3.18139 -0.273034 
-26.5483 -15.1968 -2.74643 -27.1103 -17.297 -2.74901 -27.4426 -19.4256 -2.89124 
-27.4877 -21.2808 -3.16375 -27.1944 -22.9183 -3.33527 -26.74 -24.3507 -3.26788 
-26.4149 -25.2989 -3.00925 -26.1616 -25.6517 -2.6374 -25.7814 -25.5467 -2.23443 
-26.8249 -14.5743 -2.6642 -27.6618 -15.7195 -2.52071 -28.3235 -16.8364 -2.33016 
-28.9205 -17.7988 -2.13974 -29.4923 -18.4441 -1.94768 -29.924 -18.7902 -1.72779 
-30.1378 -18.9252 -1.39145 -30.1946 -18.8542 -0.854656 -30.1897 -18.6291 -0.23046 
-9.79138 -2.04148 4.23459 -11.061 -2.72081 4.13767 -12.5866 -3.48709 4.01753 
-14.4414 -4.38223 3.7844 -16.5198 -5.56214 3.44551 -18.6303 -7.11328 3.09459 
-20.6383 -8.93091 2.67065 -22.3955 -10.8984 2.20803 -23.7734 -12.9004 1.92245 
-8.72928 -2.01295 3.97871 -8.82379 -2.68135 3.65233 -9.06837 -3.4264 3.3244 
-9.49475 -4.1456 2.95667 -10.1061 -4.79712 2.55325 -10.8832 -5.44797 2.16667 
-11.7723 -6.09424 1.80379 -12.7344 -6.66002 1.45968 -13.7232 -7.16524 1.1476 
-9.34264 -1.26084 4.55206 -10.1275 -1.0924 4.73795 -11.2185 -0.92094 4.78292 
-12.6043 -0.805088 4.75922 -14.0828 -0.86055 4.7681 -15.6137 -1.13217 4.80029 
-17.1894 -1.492 4.8047 -18.563 -1.77947 4.72268 -19.5907 -2.00504 4.49364 
-7.69266 -1.20789 4.07139 -6.66489 -1.00938 3.76976 -5.65401 -0.862285 3.40796 
-4.6317 -0.781123 3.01193 -3.62528 -0.746228 2.58616 -2.72363 -0.763753 2.14824 
-1.93121 -0.882673 1.67952 -1.28858 -1.06032 1.13761 -0.958954 -1.18476 0.557541 
-8.08771 -0.652375 4.4028 -7.52844 0.350154 4.42674 -7.1181 1.53338 4.43862 
-6.95184 2.74362 4.41754 -7.07201 3.86694 4.23072 -7.37421 4.87835 3.95572 
-7.74288 5.72593 3.73096 -8.22213 6.30681 3.44722 -8.82602 6.55976 3.0061 
-24.1084 -14.2988 1.78884 -23.3252 -13.7045 1.74781 -22.5301 -13.0015 1.63352 
-21.6828 -12.1624 1.46987 -20.5866 -11.1901 1.41564 -19.2885 -10.2235 1.44453 
-18.0557 -9.41863 1.38606 -16.9381 -8.76608 1.2366 -15.8108 -8.19163 1.06739 
-24.7423 -14.0273 2.00826 -24.5667 -12.9983 2.19752 -24.2669 -11.597 2.34083 
-23.8083 -9.99227 2.47826 -23.1751 -8.4592 2.75205 -22.5088 -7.05898 3.13827 
-21.9074 -5.73813 3.50667 -21.3441 -4.48139 3.81477 -20.8326 -3.30801 4.03831 
-25.1546 -16.395 1.81437 -25.4158 -18.1912 1.72306 -25.5835 -20.0216 1.51186 
-25.6268 -21.5957 1.19016 -25.5497 -22.8651 0.781358 -25.4466 -23.9697 0.291846 
-25.3143 -24.7965 -0.26514 -25.1672 -25.2111 -0.866404 -25.1593 -25.2998 -1.42968 
-25.5766 -16.1825 1.96683 -26.3186 -17.5747 2.05466 -27.056 -18.8377 1.98494 
-27.8123 -19.8581 1.77647 -28.5168 -20.5745 1.56493 -29.1284 -20.9413 1.34172 
-29.6264 -20.8758 1.0582 -29.9474 -20.3342 0.789827 -30.0931 -19.4182 0.55565 
-13.9806 -7.00819 -2.17412 -13.9503 -7.22992 -1.94964 -13.9864 -7.4803 -1.75658 
-14.0234 -7.78441 -1.49547 -14.0517 -8.0171 -1.05017 -14.107 -8.07799 -0.564547 
-14.1955 -8.01437 -0.187119 -14.3249 -7.89484 0.159053 -14.4918 -7.77414 0.528419 
-16.1964 -7.81582 -2.18509 -18.1345 -9.56653 -2.23863 -19.5934 -11.7651 -2.40029 
-20.787 -13.9002 -2.40956 -22.0446 -15.825 -2.22008 -23.2543 -17.7969 -2.02404 
-24.1886 -19.9373 -1.94706 -24.8195 -22.0404 -1.95738 -25.1731 -23.8112 -1.95725 
-11.8702 -6.31726 -2.65161 -9.75906 -6.07026 -2.97279 -8.12576 -5.80244 -3.00892 
-6.85911 -5.32345 -2.61728 -5.57094 -4.63666 -2.11528 -4.28911 -3.91241 -1.76106 
-3.23265 -3.22011 -1.39557 -2.33835 -2.52647 -0.913987 -1.55379 -1.85558 -0.424569 
-16.2838 -8.67561 0.700273 -17.8885 -9.99561 0.440219 -19.3052 -11.7283 0.173366 
-20.4879 -13.8248 0.0247867 -21.6043 -15.953 -0.0859277 -22.7035 -17.9117 -0.348674 
-23.5896 -19.8833 -0.772536 -24.2344 -21.9018 -1.21352 -24.797 -23.7022 -1.57043 
-12.8491 -6.9706 0.77659 -10.855 -6.50293 0.712699 -8.81427 -6.32955 0.767556 
-6.88381 -6.16829 0.842054 -5.20737 -5.70982 0.785878 -3.86416 -5.00554 0.643654 
-2.83162 -4.18475 0.497873 -2.02724 -3.23418 0.338357 -1.40961 -2.21039 0.169558 
-20.8863 -2.3126 0.432679 -21.1198 -2.14115 0.769196 -21.3413 -1.92741 1.09395 
-21.5015 -1.70068 1.51162 -21.5534 -1.53588 2.10838 -21.4614 -1.53933 2.7283 
-21.2354 -1.66367 3.19385 -20.9433 -1.79277 3.55318 -20.6568 -1.97395 3.88171 
-21.8818 -3.47096 -0.0404893 -23.2247 -4.73666 -0.20872 -24.647 -6.18821 -0.349536 
-26.04 -7.75991 -0.385907 -27.3337 -9.41395 -0.324157 -28.5192 -11.0315 -0.257175 
-29.4563 -12.5715 -0.179057 -29.968 -14.2622 -0.0253046 -30.1276 -16.2537 0.157814 
-19.6187 -1.40501 0.432188 -18.5061 -0.264972 0.746368 -17.4146 1.01339 0.979017 
-16.3763 2.28331 1.16283 -15.2148 3.34724 1.39857 -13.8641 4.22795 1.67181 
-12.6063 5.03765 1.9107 -11.5695 5.73307 2.12302 -10.5456 6.2345 2.32506 
-21.522 -3.33105 3.69466 -22.8539 -4.69143 3.19168 -24.2881 -6.33974 2.64578 
-25.7551 -8.176 2.14867 -27.2407 -9.99897 1.83633 -28.5073 -11.6504 1.59951 
-29.3218 -13.255 1.25842 -29.7745 -14.9711 0.897929 -30.0295 -16.716 0.603007 
-19.516 -1.15948 4.3926 -18.517 -0.0226895 4.55675 -17.3729 1.18497 4.63793 
-16.1416 2.47028 4.67778 -14.8565 3.69059 4.64684 -13.5368 4.67385 4.43914 
-12.3245 5.4137 4.04229 -11.3064 5.97241 3.5531 -10.3718 6.34432 3.0356 
-25.686 -26.4858 -1.87137 -26.1565 -27.62 -1.81653 -27.0162 -28.2997 -1.71804 
-28.3074 -28.3797 -1.59572 -29.4705 -27.8786 -1.43373 -29.9925 -26.8045 -1.19804 
-30.09 -25.138 -0.835203 -30.1336 -23.0084 -0.375591 -30.1676 -20.6585 0.0296277 
-0.745124 -0.208483 0.198423 -0.878839 0.986145 0.434016 -1.42199 2.30702 0.696343 
-2.19127 3.53732 0.932775 -3.08586 4.52703 1.14992 -4.13073 5.39701 1.37749 
-5.30139 6.15028 1.62432 -6.61045 6.57917 1.91269 -8.04422 6.65914 2.22724 
-11.2139 -0.278073 -2.43476 -11.1797 -0.914169 -2.75774 -12.4367 -1.05179 -2.53539 
-11.2928 -1.68411 -3.05372 -12.5579 -1.83606 -2.75528 -13.9055 -2.06558 -2.45259 
-11.5823 -2.56866 -3.2539 -12.9024 -2.77517 -2.90445 -14.2175 -3.07281 -2.48589 
-15.7831 -3.50475 -2.25782 -11.9685 -3.58191 -3.29218 -13.371 -3.6807 -3.01625 
-14.7466 -4.02623 -2.52673 -16.3391 -4.59954 -2.25801 -18.1189 -5.26496 -2.26955 
-12.4748 -4.6397 -3.14354 -13.906 -4.61002 -3.01558 -15.4369 -4.86996 -2.65173 
-17.1099 -5.55616 -2.36469 -18.8913 -6.44153 -2.39991 -20.5143 -7.22655 -2.50061 
-13.2537 -5.5314 -2.87349 -14.6825 -5.61313 -2.83446 -16.3298 -5.97842 -2.7233 
-18.1228 -6.73976 -2.58436 -19.8149 -7.72665 -2.6127 -21.2764 -8.61643 -2.71868 
-22.454 -9.30235 -2.70883 -14.3147 -6.26931 -2.59437 -15.7492 -6.59958 -2.59072 
-17.382 -7.31094 -2.66237 -19.1833 -8.33077 -2.76105 -20.7879 -9.35602 -2.86365 
-22.0256 -10.1768 -2.92375 -23.0428 -10.8056 -2.89071 -23.9331 -11.313 -2.79867 
-8.91026 0.746433 -2.403 -7.51445 0.926707 -2.42834 -8.6805 0.0327676 -2.68271 
-6.10265 0.932665 -2.3306 -7.28163 0.0769083 -2.66178 -8.52472 -0.761898 -2.95125 
-4.79834 0.763125 -2.16014 -5.9712 -0.0741876 -2.51544 -7.17575 -0.905917 -2.84684 
-8.51115 -1.65715 -3.13102 -3.63327 0.407924 -1.98617 -4.77899 -0.403385 -2.32303 
-5.99634 -1.26045 -2.67368 -7.22017 -1.9996 -2.99908 -8.74259 -2.74763 -3.23473 
-2.71112 -0.129791 -1.7306 -3.73714 -0.909555 -2.1026 -4.9476 -1.74287 -2.46343 
-6.18682 -2.51923 -2.8433 -7.54676 -3.20619 -3.18151 -9.24094 -3.98135 -3.30464 
-2.10088 -0.73515 -1.33305 -2.99831 -1.50325 -1.77604 -4.09005 -2.28872 -2.16308 
-5.36581 -3.05829 -2.54386 -6.69261 -3.76033 -3.00873 -8.14789 -4.42512 -3.32982 
-9.92117 -5.06181 -3.27141 -1.73259 -1.30894 -0.872942 -2.57225 -2.04206 -1.35816 
-3.53725 -2.79024 -1.78967 -4.73734 -3.52556 -2.13079 -6.09188 -4.25472 -2.57541 
-7.39678 -4.90714 -3.09238 -8.86969 -5.42208 -3.27889 -10.7741 -5.80578 -3.03871 
-2.05223 -2.88381 -0.308204 -2.72971 -3.95257 -0.168692 -2.91175 -3.57218 -0.846853 
-3.56738 -4.98023 0.0246149 -3.61435 -4.6891 -0.717984 -3.88416 -4.26898 -1.34197 
-4.65543 -5.86793 0.266722 -4.4423 -5.79795 -0.47448 -4.6062 -5.4323 -1.23727 
-5.04473 -4.99886 -1.74245 -6.20184 -6.41223 0.42072 -5.67091 -6.57878 -0.189213 
-5.52532 -6.47228 -1.01868 -5.83718 -6.12557 -1.73235 -6.37818 -5.72464 -2.1904 
[...]
POINT_DATA 1002
FIELD FieldData 4
_paraPhi 1 1002 double
6.2831853072 3.1415926536 6.2831853072 3.1415926536 4.7123889804 4.7123889804 1.5707963268 1.5707963268 3.6951670125 
5.7296109483 2.5880182947 0.5535743589 6.2831853072 6.2831853072 6.2831853072 6.2831853072 3.1415926536 3.1415926536 
3.1415926536 3.1415926536 3.1415926536 6.1053039672 5.898798347 5.6768734901 5.4599499503 5.2659633393 5.1032165617 
4.9713148346 4.8656852733 4.7809517865 0.17788134 0.38438696014 0.60631181711 0.82323535693 1.0172219679 1.1799687454 
1.3118704726 1.4175000338 1.5022335207 6.1892828907 6.1070320098 6.035312792 5.9728339911 5.9183214791 5.8706119594 
5.8286879411 5.7916808611 5.7588591896 0.093902416448 0.17615329733 0.2478725152 0.31035131605 0.36486382811 0.41257334776 
0.45449736604 0.4915044461 0.52432611754 3.3194739936 3.5259796137 3.7479044707 3.9648280105 4.1588146215 4.321561399 
4.4534631262 4.5590926874 4.6438261743 2.9637113136 2.7572056934 2.5352808365 2.3183572967 2.1243706857 1.9616239082 
1.829722181 1.7240926197 1.6393591329 3.23549507 3.3177459509 3.3894651688 3.4519439696 3.5064564817 3.5541660013 
3.5960900196 3.6330970997 3.6659187711 3.0476902371 2.9654393563 2.8937201384 2.8312413375 2.7767288255 2.7290193058 
2.6870952876 2.6500882075 2.617266536 6.2831853072 6.2831853072 6.2831853072 6.2831853072 3.1415926536 3.1415926536 
3.1415926536 3.1415926536 3.1415926536 6.1053039672 5.898798347 5.6768734901 5.4599499503 5.2659633393 5.1032165617 
4.9713148346 4.8656852733 4.7809517865 0.17788134 0.38438696014 0.60631181711 0.82323535693 1.0172219679 1.1799687454 
1.3118704726 1.4175000338 1.5022335207 6.1892828907 6.1070320098 6.035312792 5.9728339911 5.9183214791 5.8706119594 
5.8286879411 5.7916808611 5.7588591896 0.093902416448 0.17615329733 0.2478725152 0.31035131605 0.36486382811 0.41257334776 
0.45449736604 0.4915044461 0.52432611754 3.3194739936 3.5259796137 3.7479044707 3.9648280105 4.1588146215 4.321561399 
4.4534631262 4.5590926874 4.6438261743 2.9637113136 2.7572056934 2.5352808365 2.3183572967 2.1243706857 1.9616239082 
1.829722181 1.7240926197 1.6393591329 3.23549507 3.3177459509 3.3894651688 3.4519439696 3.5064564817 3.5541660013 
3.5960900196 3.6330970997 3.6659187711 3.0476902371 2.9654393563 2.8937201384 2.8312413375 2.7767288255 2.7290193058 
2.6870952876 2.6500882075 2.617266536 4.7123889804 4.7123889804 4.7123889804 4.7123889804 4.7123889804 4.7123889804 
4.7123889804 4.7123889804 4.7123889804 4.6087898617 4.4991390697 4.3857031936 4.2712800401 4.1588146215 4.0509635631 
3.94975894 3.8564636551 3.7716124825 4.8159880991 4.9256388911 5.0390747672 5.1534979207 5.2659633393 5.3738143976 
5.4750190208 5.5683143056 5.6531654782 4.6087898617 4.4991390697 4.3857031936 4.2712800401 4.1588146215 4.0509635631 
3.94975894 3.8564636551 3.7716124825 4.8159880991 4.9256388911 5.0390747672 5.1534979207 5.2659633393 5.3738143976 
5.4750190208 5.5683143056 5.6531654782 1.5707963268 1.5707963268 1.5707963268 1.5707963268 1.5707963268 1.5707963268 
1.5707963268 1.5707963268 1.5707963268 1.6743954455 1.7840462375 1.8974821136 2.0119052671 2.1243706857 2.232221744 
2.3334263672 2.426721652 2.5115728246 1.4671972081 1.3575464161 1.24411054 1.1296873865 1.0172219679 0.90937090954 
0.80816628637 0.71487100155 0.63001982895 1.6743954455 1.7840462375 1.8974821136 2.0119052671 2.1243706857 2.232221744 
2.3334263672 2.426721652 2.5115728246 1.4671972081 1.3575464161 1.24411054 1.1296873865 1.0172219679 0.90937090954 
0.80816628637 0.71487100155 0.63001982895 3.6007720849 3.4966939854 3.3839471039 3.2645756454 3.1415926536 3.0186096618 
2.8992382033 2.7864913217 2.6824132222 5.8240058758 5.9280839753 6.0408308569 6.1602023154 6.2831853072 0.12298299178 
0.2423544503 0.35510133185 0.45917943135 6.0560271438 5.7885595667 5.9702140275 5.5125918794 5.6029703303 5.7885595667 
5.2659633393 5.2659633393 5.2659633393 5.2659633393 5.0674903122 5.0120975802 4.9155579264 4.7123889804 4.1588146215 
4.9155579264 4.8353719722 4.7123889804 4.5092200343 4.1588146215 3.6362183941 4.8004512023 4.7123889804 4.5894059886 
4.4126803806 4.1588146215 3.8218076305 3.4545639333 4.7123889804 4.6243267584 4.5092200343 4.3572876485 4.1588146215 
3.9121860814 3.6362183941 3.368750817 6.0174235957 5.9434319871 5.8263323547 5.8809213739 5.7674481418 5.6279784266 
5.8278025282 5.718968232 5.5891129425 5.4372443565 5.7823484065 5.678536687 5.5575666702 5.4192596322 5.2659633393 
5.743164462 5.6444075337 5.5314983644 5.4046708639 5.2659633393 5.1195510325 5.7091357773 5.6152775188 5.5096229709 
5.3926039573 5.2659633393 5.1329233157 4.9978930058 5.6793730533 5.5901633916 5.4910209005 5.3824597928 5.2659633393 
5.1440684722 5.0201624502 4.8979782167 5.5683143056 5.4750190208 5.4750190208 5.3738143976 5.3738143976 5.3738143976 
5.2659633393 5.2659633393 5.2659633393 5.2659633393 5.1534979207 5.1534979207 5.1534979207 5.1534979207 5.1534979207 
5.0390747672 5.0390747672 5.0390747672 5.0390747672 5.0390747672 5.0390747672 4.9256388911 4.9256388911 4.9256388911 
4.9256388911 4.9256388911 4.9256388911 4.9256388911 4.8159880991 4.8159880991 4.8159880991 4.8159880991 4.8159880991 
4.8159880991 4.8159880991 4.8159880991 4.6087898617 4.6087898617 4.4991390697 4.6087898617 4.4991390697 4.3857031936 
4.6087898617 4.4991390697 4.3857031936 4.2712800401 4.6087898617 4.4991390697 4.3857031936 4.2712800401 4.1588146215 
4.6087898617 4.4991390697 4.3857031936 4.2712800401 4.1588146215 4.0509635631 4.6087898617 4.4991390697 4.3857031936 
4.2712800401 4.1588146215 4.0509635631 3.94975894 4.6087898617 4.4991390697 4.3857031936 4.2712800401 4.1588146215 
4.0509635631 3.94975894 3.8564636551 4.526799744 4.4046155105 4.426884955 4.2807094886 4.2918546451 4.3052269283 
4.1588146215 4.1588146215 4.1588146215 4.1588146215 4.042318168 4.0321740035 4.0201070968 4.0055183285 3.9875336042 
3.9337570603 3.9151549899 3.8932795963 3.8672112905 3.8356650183 3.7967995342 3.8346145692 3.809500442 3.7803704271 
3.7462412737 3.7058097288 3.657329819 3.5984456061 3.7454049075 3.7156421835 3.6816134988 3.6424295543 3.5969754326 
3.5438565869 3.4813459737 3.4073543651 3.5642842451 3.4524645613 3.5233842518 3.3320300872 3.403123212 3.4773852225 
3.20576226 3.2746326772 3.348015857 3.4255060145 3.0774230472 3.1415926536 3.2112816139 3.2864685043 3.3668817272 
2.95115522 3.00855263 3.0719036933 3.1415926536 3.2178377658 3.3005964304 2.8307207459 2.8800620952 2.9351694502 
2.9967168029 3.0653475414 3.1415926536 3.225752376 2.718901062 2.7598010554 2.8058000847 2.8576792927 2.91630358 
2.9825888767 3.0574329311 3.1415926536 3.5642842451 3.5233842518 3.4524645613 3.4773852225 3.403123212 3.3320300872 
3.4255060145 3.348015857 3.2746326772 3.20576226 3.3668817272 3.2864685043 3.2112816139 3.1415926536 3.0774230472 
3.3005964304 3.2178377658 3.1415926536 3.0719036933 3.00855263 2.95115522 3.225752376 3.1415926536 3.0653475414 
2.9967168029 2.9351694502 2.8800620952 2.8307207459 3.1415926536 3.0574329311 2.9825888767 2.91630358 2.8576792927 
2.8058000847 2.7598010554 2.718901062 4.526799744 4.426884955 4.4046155105 4.3052269283 4.2918546451 4.2807094886 
4.1588146215 4.1588146215 4.1588146215 4.1588146215 3.9875336042 4.0055183285 4.0201070968 4.0321740035 4.042318168 
3.7967995342 3.8356650183 3.8672112905 3.8932795963 3.9151549899 3.9337570603 3.5984456061 3.657329819 3.7058097288 
3.7462412737 3.7803704271 3.809500442 3.8346145692 3.4073543651 3.4813459737 3.5438565869 3.5969754326 3.6424295543 
3.6816134988 3.7156421835 3.7454049075 4.7123889804 4.8004512023 4.6243267584 4.9155579264 4.7123889804 4.5092200343 
5.0674903122 4.8353719722 4.5894059886 4.3572876485 5.2659633393 5.0120975802 4.7123889804 4.4126803806 4.1588146215 
5.5125918794 5.2659633393 4.9155579264 4.5092200343 4.1588146215 3.9121860814 5.7885595667 5.6029703303 5.2659633393 
4.7123889804 4.1588146215 3.8218076305 3.6362183941 6.0560271438 5.9702140275 5.7885595667 5.2659633393 4.1588146215 
3.6362183941 3.4545639333 3.368750817 0.22715816343 0.49462574053 0.3129712797 0.77059342779 0.68021497688 0.49462574053 
1.0172219679 1.0172219679 1.0172219679 1.0172219679 1.2156949949 1.271087727 1.3676273807 1.5707963268 2.1243706857 
1.3676273807 1.447813335 1.5707963268 1.7739652728 2.1243706857 2.6469669131 1.4827341049 1.5707963268 1.6937793186 
1.8705049266 2.1243706857 2.4613776767 2.8286213739 1.5707963268 1.6588585487 1.7739652728 1.9258976586 2.1243706857 
2.3709992258 2.6469669131 2.9144344902 1.7563855631 1.8785697967 1.8563003522 2.0024758186 1.9913306621 1.9779583789 
2.1243706857 2.1243706857 2.1243706857 2.1243706857 2.2408671392 2.2510113037 2.2630782103 2.2776669786 2.295651703 
2.3494282469 2.3680303173 2.3899057108 2.4159740166 2.4475202889 2.486385773 2.448570738 2.4736848652 2.5028148801 
2.5369440334 2.5773755784 2.6258554882 2.6847397011 2.5377803997 2.5675431237 2.6015718084 2.6407557529 2.6862098746 
2.7393287203 2.8018393335 2.8758309421 1.6743954455 1.6743954455 1.7840462375 1.6743954455 1.7840462375 1.8974821136 
1.6743954455 1.7840462375 1.8974821136 2.0119052671 1.6743954455 1.7840462375 1.8974821136 2.0119052671 2.1243706857 
1.6743954455 1.7840462375 1.8974821136 2.0119052671 2.1243706857 2.232221744 1.6743954455 1.7840462375 1.8974821136 
2.0119052671 2.1243706857 2.232221744 2.3334263672 1.6743954455 1.7840462375 1.8974821136 2.0119052671 2.1243706857 
2.232221744 2.3334263672 2.426721652 1.4671972081 1.3575464161 1.4671972081 1.24411054 1.3575464161 1.4671972081 
1.1296873865 1.24411054 1.3575464161 1.4671972081 1.0172219679 1.1296873865 1.24411054 1.3575464161 1.4671972081 
0.90937090954 1.0172219679 1.1296873865 1.24411054 1.3575464161 1.4671972081 0.80816628637 0.90937090954 1.0172219679 
1.1296873865 1.24411054 1.3575464161 1.4671972081 0.71487100155 0.80816628637 0.90937090954 1.0172219679 1.1296873865 
1.24411054 1.3575464161 1.4671972081 0.60381225391 0.57404952988 0.69302191562 0.54002084522 0.66790778838 0.79216440667 
0.50083690068 0.63877777351 0.77356233629 0.90072551443 0.45538277901 0.60464862014 0.75168694275 0.89058134991 1.0172219679 
0.40226393329 0.56421707518 0.72561863695 0.87851444325 1.0172219679 1.139116835 0.33975332011 0.51573716537 0.69407236469 
0.86392567495 1.0172219679 1.1502619915 1.2630228569 0.26576171152 0.45685295248 0.6552068806 0.84594095064 1.0172219679 
1.1636342747 1.2852923014 1.3852070904 0.22715816343 0.3129712797 0.49462574053 0.49462574053 0.68021497688 0.77059342779 
1.0172219679 1.0172219679 1.0172219679 1.0172219679 2.1243706857 1.5707963268 1.3676273807 1.271087727 1.2156949949 
2.6469669131 2.1243706857 1.7739652728 1.5707963268 1.447813335 1.3676273807 2.8286213739 2.4613776767 2.1243706857 
1.8705049266 1.6937793186 1.5707963268 1.4827341049 2.9144344902 2.6469669131 2.3709992258 2.1243706857 1.9258976586 
1.7739652728 1.6588585487 1.5707963268 1.7563855631 1.8563003522 1.8785697967 1.9779583789 1.9913306621 2.0024758186 
2.1243706857 2.1243706857 2.1243706857 2.1243706857 2.295651703 2.2776669786 2.2630782103 2.2510113037 2.2408671392 
2.486385773 2.4475202889 2.4159740166 2.3899057108 2.3680303173 2.3494282469 2.6847397011 2.6258554882 2.5773755784 
2.5369440334 2.5028148801 2.4736848652 2.448570738 2.8758309421 2.8018393335 2.7393287203 2.6862098746 2.6407557529 
2.6015718084 2.5675431237 2.5377803997 5.8604937156 5.901393709 5.9723133995 5.9473927383 6.0216547488 6.0927478736 
5.9992719463 6.0767621038 6.1501452836 6.2190157008 6.0578962336 6.1383094565 6.2134963469 0 0.064169606361 
6.1241815303 6.206940195 6.2831853072 0.069688960264 0.13304002361 0.19043743361 6.1990255847 0 0.07624511221 
0.14487585072 0.20642320337 0.26153055843 0.3108719077 0 0.084159722458 0.15900377685 0.22528907359 0.28391336087 
0.3357925689 0.38179159818 0.42269159155 5.8604937156 5.9723133995 5.901393709 6.0927478736 6.0216547488 5.9473927383 
6.2190157008 6.1501452836 6.0767621038 5.9992719463 0.064169606361 0 6.2134963469 6.1383094565 6.0578962336 
0.19043743361 0.13304002361 0.069688960264 6.2831853072 6.206940195 6.1241815303 0.3108719077 0.26153055843 0.20642320337 
0.14487585072 0.07624511221 6.2831853072 6.1990255847 0.42269159155 0.38179159818 0.3357925689 0.28391336087 0.22528907359 
0.15900377685 0.084159722458 0 5.6793730533 5.7091357773 5.5901633916 5.743164462 5.6152775188 5.4910209005 
5.7823484065 5.6444075337 5.5096229709 5.3824597928 5.8278025282 5.678536687 5.5314983644 5.3926039573 5.2659633393 
5.8809213739 5.718968232 5.5575666702 5.4046708639 5.2659633393 5.1440684722 5.9434319871 5.7674481418 5.5891129425 
5.4192596322 5.2659633393 5.1329233157 5.0201624502 6.0174235957 5.8263323547 5.6279784266 5.4372443565 5.2659633393 
5.1195510325 4.9978930058 4.8979782167 1.3852070904 1.2852923014 1.2630228569 1.1636342747 1.1502619915 1.139116835 
1.0172219679 1.0172219679 1.0172219679 1.0172219679 0.84594095064 0.86392567495 0.87851444325 0.89058134991 0.90072551443 
0.6552068806 0.69407236469 0.72561863695 0.75168694275 0.77356233629 0.79216440667 0.45685295248 0.51573716537 0.56421707518 
0.60464862014 0.63877777351 0.66790778838 0.69302191562 0.26576171152 0.33975332011 0.40226393329 0.45538277901 0.50083690068 
0.54002084522 0.57404952988 0.60381225391 
_paraPhiHalf 1 1002 double
0 3.1415926536 0 3.1415926536 1.5707963268 1.5707963268 1.5707963268 1.5707963268 2.5880182947 
0.5535743589 2.5880182947 0.5535743589 0 0 0 0 3.1415926536 3.1415926536 
3.1415926536 3.1415926536 3.1415926536 0.17788134 0.38438696014 0.60631181711 0.82323535693 1.0172219679 1.1799687454 
1.3118704726 1.4175000338 1.5022335207 0.17788134 0.38438696014 0.60631181711 0.82323535693 1.0172219679 1.1799687454 
1.3118704726 1.4175000338 1.5022335207 0.093902416448 0.17615329733 0.2478725152 0.31035131605 0.36486382811 0.41257334776 
0.45449736604 0.4915044461 0.52432611754 0.093902416448 0.17615329733 0.2478725152 0.31035131605 0.36486382811 0.41257334776 
0.45449736604 0.4915044461 0.52432611754 2.9637113136 2.7572056934 2.5352808365 2.3183572967 2.1243706857 1.9616239082 
1.829722181 1.7240926197 1.6393591329 2.9637113136 2.7572056934 2.5352808365 2.3183572967 2.1243706857 1.9616239082 
1.829722181 1.7240926197 1.6393591329 3.0476902371 2.9654393563 2.8937201384 2.8312413375 2.7767288255 2.7290193058 
2.6870952876 2.6500882075 2.617266536 3.0476902371 2.9654393563 2.8937201384 2.8312413375 2.7767288255 2.7290193058 
2.6870952876 2.6500882075 2.617266536 0 0 0 0 3.1415926536 3.1415926536 
3.1415926536 3.1415926536 3.1415926536 0.17788134 0.38438696014 0.60631181711 0.82323535693 1.0172219679 1.1799687454 
1.3118704726 1.4175000338 1.5022335207 0.17788134 0.38438696014 0.60631181711 0.82323535693 1.0172219679 1.1799687454 
1.3118704726 1.4175000338 1.5022335207 0.093902416448 0.17615329733 0.2478725152 0.31035131605 0.36486382811 0.41257334776 
0.45449736604 0.4915044461 0.52432611754 0.093902416448 0.17615329733 0.2478725152 0.31035131605 0.36486382811 0.41257334776 
0.45449736604 0.4915044461 0.52432611754 2.9637113136 2.7572056934 2.5352808365 2.3183572967 2.1243706857 1.9616239082 
1.829722181 1.7240926197 1.6393591329 2.9637113136 2.7572056934 2.5352808365 2.3183572967 2.1243706857 1.9616239082 
1.829722181 1.7240926197 1.6393591329 3.0476902371 2.9654393563 2.8937201384 2.8312413375 2.7767288255 2.7290193058 
2.6870952876 2.6500882075 2.617266536 3.0476902371 2.9654393563 2.8937201384 2.8312413375 2.7767288255 2.7290193058 
2.6870952876 2.6500882075 2.617266536 1.5707963268 1.5707963268 1.5707963268 1.5707963268 1.5707963268 1.5707963268 
1.5707963268 1.5707963268 1.5707963268 1.6743954455 1.7840462375 1.8974821136 2.0119052671 2.1243706857 2.232221744 
2.3334263672 2.426721652 2.5115728246 1.4671972081 1.3575464161 1.24411054 1.1296873865 1.0172219679 0.90937090954 
0.80816628637 0.71487100155 0.63001982895 1.6743954455 1.7840462375 1.8974821136 2.0119052671 2.1243706857 2.232221744 
2.3334263672 2.426721652 2.5115728246 1.4671972081 1.3575464161 1.24411054 1.1296873865 1.0172219679 0.90937090954 
0.80816628637 0.71487100155 0.63001982895 1.5707963268 1.5707963268 1.5707963268 1.5707963268 1.5707963268 1.5707963268 
1.5707963268 1.5707963268 1.5707963268 1.6743954455 1.7840462375 1.8974821136 2.0119052671 2.1243706857 2.232221744 
2.3334263672 2.426721652 2.5115728246 1.4671972081 1.3575464161 1.24411054 1.1296873865 1.0172219679 0.90937090954 
0.80816628637 0.71487100155 0.63001982895 1.6743954455 1.7840462375 1.8974821136 2.0119052671 2.1243706857 2.232221744 
2.3334263672 2.426721652 2.5115728246 1.4671972081 1.3575464161 1.24411054 1.1296873865 1.0172219679 0.90937090954 
0.80816628637 0.71487100155 0.63001982895 2.6824132222 2.7864913217 2.8992382033 3.0186096618 3.1415926536 3.0186096618 
2.8992382033 2.7864913217 2.6824132222 0.45917943135 0.35510133185 0.2423544503 0.12298299178 0 0.12298299178 
0.2423544503 0.35510133185 0.45917943135 0.22715816343 0.49462574053 0.3129712797 0.77059342779 0.68021497688 0.49462574053 
1.0172219679 1.0172219679 1.0172219679 1.0172219679 1.2156949949 1.271087727 1.3676273807 1.5707963268 2.1243706857 
1.3676273807 1.447813335 1.5707963268 1.7739652728 2.1243706857 2.6469669131 1.4827341049 1.5707963268 1.6937793186 
1.8705049266 2.1243706857 2.4613776767 2.8286213739 1.5707963268 1.6588585487 1.7739652728 1.9258976586 2.1243706857 
2.3709992258 2.6469669131 2.9144344902 0.26576171152 0.33975332011 0.45685295248 0.40226393329 0.51573716537 0.6552068806 
0.45538277901 0.56421707518 0.69407236469 0.84594095064 0.50083690068 0.60464862014 0.72561863695 0.86392567495 1.0172219679 
0.54002084522 0.63877777351 0.75168694275 0.87851444325 1.0172219679 1.1636342747 0.57404952988 0.66790778838 0.77356233629 
0.89058134991 1.0172219679 1.1502619915 1.2852923014 0.60381225391 0.69302191562 0.79216440667 0.90072551443 1.0172219679 
1.139116835 1.2630228569 1.3852070904 0.71487100155 0.80816628637 0.80816628637 0.90937090954 0.90937090954 0.90937090954 
1.0172219679 1.0172219679 1.0172219679 1.0172219679 1.1296873865 1.1296873865 1.1296873865 1.1296873865 1.1296873865 
1.24411054 1.24411054 1.24411054 1.24411054 1.24411054 1.24411054 1.3575464161 1.3575464161 1.3575464161 
1.3575464161 1.3575464161 1.3575464161 1.3575464161 1.4671972081 1.4671972081 1.4671972081 1.4671972081 1.4671972081 
1.4671972081 1.4671972081 1.4671972081 1.6743954455 1.6743954455 1.7840462375 1.6743954455 1.7840462375 1.8974821136 
1.6743954455 1.7840462375 1.8974821136 2.0119052671 1.6743954455 1.7840462375 1.8974821136 2.0119052671 2.1243706857 
1.6743954455 1.7840462375 1.8974821136 2.0119052671 2.1243706857 2.232221744 1.6743954455 1.7840462375 1.8974821136 
2.0119052671 2.1243706857 2.232221744 2.3334263672 1.6743954455 1.7840462375 1.8974821136 2.0119052671 2.1243706857 
2.232221744 2.3334263672 2.426721652 1.7563855631 1.8785697967 1.8563003522 2.0024758186 1.9913306621 1.9779583789 
2.1243706857 2.1243706857 2.1243706857 2.1243706857 2.2408671392 2.2510113037 2.2630782103 2.2776669786 2.295651703 
2.3494282469 2.3680303173 2.3899057108 2.4159740166 2.4475202889 2.486385773 2.448570738 2.4736848652 2.5028148801 
2.5369440334 2.5773755784 2.6258554882 2.6847397011 2.5377803997 2.5675431237 2.6015718084 2.6407557529 2.6862098746 
2.7393287203 2.8018393335 2.8758309421 2.718901062 2.8307207459 2.7598010554 2.95115522 2.8800620952 2.8058000847 
3.0774230472 3.00855263 2.9351694502 2.8576792927 3.0774230472 3.1415926536 3.0719036933 2.9967168029 2.91630358 
2.95115522 3.00855263 3.0719036933 3.1415926536 3.0653475414 2.9825888767 2.8307207459 2.8800620952 2.9351694502 
2.9967168029 3.0653475414 3.1415926536 3.0574329311 2.718901062 2.7598010554 2.8058000847 2.8576792927 2.91630358 
2.9825888767 3.0574329311 3.1415926536 2.718901062 2.7598010554 2.8307207459 2.8058000847 2.8800620952 2.95115522 
2.8576792927 2.9351694502 3.00855263 3.0774230472 2.91630358 2.9967168029 3.0719036933 3.1415926536 3.0774230472 
2.9825888767 3.0653475414 3.1415926536 3.0719036933 3.00855263 2.95115522 3.0574329311 3.1415926536 3.0653475414 