# vtk DataFile Version 5.1
vtk output
ASCII
DATASET POLYDATA
POINTS 1002 float
-9.7507 0.255373 -2.66165 -20.679 -16.3489 -5.94058 -8.74973 -2.33628 3.18928 
-20.2345 -16.8491 -1.38136 -11.7868 -7.48103 -3.22841 -12.1473 -8.38629 -0.0068025 
-19.4878 -4.94369 -1.6615 -19.7992 -5.37948 1.99043 -16.4107 -28.3686 -5.14801 
-0.869225 -0.458762 -0.0332973 -23.7502 -22.7854 -4.42132 -10.5705 5.24253 1.62556 
-10.6595 -0.581779 -2.7954 -11.6929 -1.56582 -2.90337 -12.8522 -2.71012 -2.98318 
-14.2924 -4.14299 -3.07765 -16.0777 -6.05291 -3.31156 -17.8549 -8.38567 -3.77236 
-19.175 -10.7682 -4.3907 -19.9654 -12.8833 -5.02615 -20.4123 -14.7079 -5.56112 
-9.45504 -0.170501 -2.88991 -9.13884 -0.634154 -3.10337 -8.85074 -1.28347 -3.26656 
-8.73293 -2.21994 -3.39898 -8.82516 -3.24117 -3.50055 -9.01968 -4.13509 -3.50524 
-9.34469 -4.99108 -3.42689 -9.94912 -5.89267 -3.36034 -10.8195 -6.74474 -3.31296 
-10.6127 0.195377 -2.53906 -11.6143 0.0657862 -2.44356 -12.7087 -0.260393 -2.32268 
-13.7824 -0.792116 -2.11699 -14.8388 -1.41002 -1.92681 -15.9162 -2.11407 -1.8302 
-16.9233 -2.92351 -1.73159 -17.8221 -3.7006 -1.63478 -18.6784 -4.35824 -1.62529 
-8.69723 0.751165 -2.64145 -7.55641 1.17329 -2.56944 -6.32676 1.45099 -2.42788 
-5.03912 1.61571 -2.24799 -3.81024 1.69206 -2.04899 -2.79599 1.57056 -1.78438 
-2.03167 1.19777 -1.39409 -1.45045 0.673214 -0.905974 -1.04689 0.101519 -0.430007 
-9.45239 1.00104 -2.41678 -9.23588 1.75235 -2.14627 -9.10376 2.49595 -1.84755 
-9.07033 3.19965 -1.45287 -9.15166 3.79296 -0.94755 -9.33795 4.30018 -0.459134 
-9.62868 4.77354 -0.0371197 -9.9895 5.12779 0.436958 -10.3243 5.27377 1.01905 
-20.2656 -16.0948 -5.87141 -19.7923 -15.6907 -5.72675 -19.172 -15.1203 -5.52767 
-18.4807 -14.3486 -5.28736 -17.8697 -13.3588 -4.92622 -17.1927 -12.1251 -4.38521 
-16.1657 -10.6496 -3.82059 -14.7834 -9.1794 -3.4512 -13.2522 -8.08535 -3.29732 
-20.9685 -15.4887 -5.74777 -21.2379 -14.461 -5.46298 -21.4221 -13.2607 -5.06579 
-21.462 -11.9357 -4.58318 -21.3206 -10.5443 -4.07739 -21.0325 -9.1725 -3.55264 
-20.6765 -7.9252 -2.99739 -20.281 -6.82232 -2.47352 -19.8667 -5.82641 -2.0351 
-20.5885 -17.9332 -6.19765 -20.3802 -19.7409 -6.39896 -20.0081 -21.6198 -6.55747 
-19.4241 -23.4594 -6.70188 -18.6733 -25.3107 -6.82511 -17.9576 -26.9955 -6.83059 
-17.3935 -28.1141 -6.61661 -16.9126 -28.6108 -6.19673 -16.5396 -28.6732 -5.67266 
-21.0957 -17.4567 -6.12025 -21.5645 -18.6054 -6.25486 -21.9437 -19.8091 -6.346 
-22.1591 -21.0359 -6.32074 -22.3852 -22.096 -6.15697 -22.7047 -22.7478 -5.95718 
-23.0213 -22.9939 -5.73132 -23.3222 -23.0409 -5.38501 -23.5895 -22.9855 -4.91935 
-9.81479 -3.26292 3.1929 -11.0439 -4.26073 3.14296 -12.4913 -5.23123 2.9104 
-14.0989 -6.24437 2.42801 -15.6929 -7.6112 1.86088 -17.1404 -9.41872 1.2877 
-18.3635 -11.3325 0.525891 -19.2849 -13.1521 -0.354505 -19.8878 -14.9824 -1.0218 
-8.51468 -3.01594 3.15431 -8.39683 -3.65405 2.96568 -8.40543 -4.23587 2.64042 
-8.51399 -4.85017 2.28333 -8.77837 -5.54439 1.93706 -9.24782 -6.22508 1.55623 
-9.86366 -6.80017 1.13401 -10.5864 -7.3079 0.715424 -11.3815 -7.83045 0.333427 
-9.69353 -2.22609 3.16028 -10.7336 -2.21937 3.12578 -11.9581 -2.37776 3.12273 
-13.4181 -2.71939 3.14902 -14.9214 -3.20639 3.16945 -16.2907 -3.73762 3.15962 
-17.5055 -4.2141 3.07109 -18.4909 -4.61779 2.82567 -19.2157 -4.99117 2.43009 
-7.52318 -1.89968 3.19382 -6.28901 -1.49585 3.16906 -5.24802 -1.12526 3.00762 
-4.36106 -0.779828 2.66776 -3.41729 -0.488648 2.31308 -2.49178 -0.329969 2.00811 
-1.74873 -0.30442 1.57221 -1.18481 -0.33152 0.993277 -0.866179 -0.380517 0.44245 
-8.31749 -1.32832 3.15388 -7.96203 -0.242349 3.1179 -7.71932 0.887926 3.1226 
-7.60607 2.05108 3.15718 -7.68813 3.21667 3.1769 -8.02875 4.25302 3.1379 
-8.60273 4.96085 2.98317 -9.31604 5.2874 2.65375 -10.0183 5.34646 2.16545 
-19.7443 -16.3656 -1.36837 -19.1604 -15.7204 -1.25879 -18.5515 -14.929 -1.04051 
-17.9391 -13.9808 -0.867706 -17.2265 -12.8977 -0.730494 -16.3462 -11.7842 -0.456985 
-15.3509 -10.7404 -0.147816 -14.3043 -9.80218 0.00563641 -13.2304 -8.99992 0.0274576 
-20.4925 -16.015 -1.21722 -20.6927 -15.0539 -0.97699 -20.8765 -14.0673 -0.579552 
-21.0412 -13.0359 -0.0596351 -21.0553 -11.8088 0.409261 -20.8702 -10.3913 0.750066 
-20.6154 -9.01185 1.06335 -20.3699 -7.76875 1.4091 -20.102 -6.56446 1.7364 
-20.159 -18.5238 -1.62228 -19.9901 -20.2948 -1.89942 -19.6933 -22.1237 -2.19519 
-19.1841 -23.929 -2.44511 -18.5566 -25.4639 -2.76212 -18.0143 -26.5902 -3.24873 
-17.5025 -27.4389 -3.76223 -16.9337 -28.0836 -4.21597 -16.5062 -28.419 -4.68009 
-20.6296 -18.2814 -1.54302 -20.995 -19.6818 -1.78085 -21.3858 -20.9119 -2.05536 
-21.8327 -21.9822 -2.25401 -22.2711 -22.8404 -2.48696 -22.6114 -23.3219 -2.86742 
-22.9045 -23.4659 -3.25258 -23.2388 -23.4237 -3.59153 -23.5556 -23.2039 -3.98721 
-11.5551 -7.6415 -3.05384 -11.3994 -7.77194 -2.76651 -11.3229 -7.90974 -2.45258 
-11.2696 -8.0954 -2.15601 -11.1907 -8.29976 -1.8052 -11.1632 -8.44692 -1.36766 
-11.3074 -8.49904 -0.921981 -11.5941 -8.47632 -0.546385 -11.8967 -8.42741 -0.252387 
-13.6366 -8.69051 -3.20357 -15.2415 -10.5474 -3.3839 -16.251 -13.0067 -3.88965 
-16.7999 -15.7862 -4.56267 -17.188 -18.5717 -5.05297 -17.3969 -21.2019 -5.2567 
-17.3289 -23.6121 -5.34041 -17.0383 -25.6829 -5.37869 -16.6637 -27.2773 -5.31844 
-9.79618 -6.86465 -3.23925 -7.98432 -6.49488 -3.21878 -6.50938 -6.03158 -3.10497 
-5.30084 -5.33711 -2.80489 -4.27303 -4.48324 -2.31471 -3.36852 -3.55571 -1.82816 
-2.52264 -2.67766 -1.41026 -1.76027 -1.90584 -0.945657 -1.1845 -1.17278 -0.454406 
-13.5153 -9.4508 -0.368003 -14.7562 -10.9189 -0.9365 -15.8059 -12.8447 -1.69639 
-16.6399 -15.2463 -2.44889 -17.1916 -17.9117 -3.01038 -17.4288 -20.519 -3.42241 
-17.3612 -22.975 -3.83937 -17.0351 -25.236 -4.30605 -16.6383 -27.0836 -4.75554 
-10.4735 -7.65967 0.10713 -8.61767 -7.18867 0.202531 -6.81622 -6.80481 0.337159 
-5.22968 -6.28662 0.504221 -3.90345 -5.57642 0.611779 -2.84975 -4.68509 0.567503 
-2.03497 -3.63069 0.402262 -1.42217 -2.52256 0.226637 -1.0294 -1.45859 0.0892128 
-19.7471 -4.80384 -1.40709 -19.9817 -4.6882 -1.04556 -20.1727 -4.553 -0.647371 
-20.3578 -4.36935 -0.25087 -20.5413 -4.21281 0.262257 -20.603 -4.16621 0.886371 
-20.4527 -4.24638 1.38277 -20.1916 -4.49168 1.66238 -19.9657 -4.90604 1.84126 
-20.4837 -6.12173 -1.92644 -21.4308 -7.53879 -2.22845 -22.3239 -9.1159 -2.60614 
-23.2539 -10.708 -3.08318 -24.0229 -12.5032 -3.58147 -24.3092 -14.8887 -4.02176 
-24.2482 -17.6101 -4.38569 -24.1404 -19.9243 -4.59433 -23.9983 -21.5659 -4.57994 
-18.6535 -3.74982 -1.28156 -17.8339 -2.48683 -0.892475 -17.0228 -1.13956 -0.52835 
-16.1608 0.226265 -0.204971 -15.2321 1.4545 0.146403 -14.2447 2.47195 0.539303 
-13.2542 3.34941 0.865199 -12.3443 4.13157 1.10751 -11.4804 4.7782 1.35442 
-20.6134 -6.64527 1.40639 -21.5407 -8.21622 0.784212 -22.4872 -9.95382 0.111028 
-23.3176 -11.7192 -0.605625 -23.9209 -13.6711 -1.3011 -24.2442 -15.991 -2.00155 
-24.3104 -18.3665 -2.76773 -24.2037 -20.3098 -3.48313 -24.0056 -21.7179 -4.0183 
-19.1119 -3.97804 2.43924 -18.3795 -2.58536 2.77725 -17.5928 -1.20951 2.96604 
-16.6376 0.148547 3.05137 -15.4825 1.4485 3.04937 -14.3242 2.61073 2.9251 
-13.2853 3.56071 2.69509 -12.3111 4.29043 2.39615 -11.3953 4.84372 2.03348 
-16.4584 -29.4114 -5.22677 -17.0562 -30.1569 -5.26627 -18.2043 -30.4706 -5.26239 
-19.4233 -30.1613 -5.23188 -20.3344 -29.2577 -5.20917 -21.1447 -28.1497 -5.16534 
-22.0207 -27.013 -5.01977 -22.7779 -25.6611 -4.78282 -23.3337 -24.1608 -4.56465 
-0.838958 0.61809 0.118553 -1.102 1.73807 0.28703 -1.72608 2.8071 0.51662 
-2.61816 3.79393 0.75726 -3.63436 4.61851 0.875248 -4.86585 5.17954 0.915935 
-6.39567 5.52716 1.06245 -7.99141 5.68897 1.30379 -9.39966 5.58685 1.50421 
-10.4479 -1.0518 -3.02266 -10.2101 -1.55707 -3.23459 -11.5487 -2.05772 -3.13205 
-10.0117 -2.32167 -3.39688 -11.4189 -2.64963 -3.32787 -12.8797 -3.29421 -3.20029 
-10.0099 -3.34189 -3.52676 -11.4293 -3.57166 -3.42543 -13.0911 -4.15671 -3.31675 
-14.6892 -5.05737 -3.27727 -10.2505 -4.27957 -3.57899 -11.7228 -4.64596 -3.45301 
-13.5654 -5.36985 -3.30088 -15.3441 -6.39582 -3.35898 -16.7338 -7.44862 -3.55657 
-10.7088 -5.1003 -3.48715 -12.311 -5.63456 -3.42101 -14.2399 -6.63822 -3.30558 
-16.0774 -7.92543 -3.43158 -17.3971 -9.11893 -3.77905 -18.3529 -10.0409 -4.12265 
-11.4258 -6.05339 -3.3555 -13.1276 -6.73141 -3.35503 -14.9855 -7.92772 -3.41484 
-16.6542 -9.37162 -3.67904 -17.8148 -10.6821 -4.11314 -18.6265 -11.6483 -4.51469 
-19.3375 -12.3435 -4.81082 -12.3393 -7.11017 -3.30455 -14.0223 -7.99644 -3.36141 
-15.6756 -9.33707 -3.60091 -17.0161 -10.7928 -4.04691 -17.926 -12.0676 -4.55038 
-18.6345 -13.0468 -4.94411 -19.317 -13.7634 -5.21873 -19.9187 -14.3063 -5.42365 
-8.25764 0.30665 -2.88158 -6.98332 0.632668 -2.80477 -7.81145 -0.256897 -3.0912 
-5.73213 0.775016 -2.63898 -6.47898 -0.0727502 -3.01791 -7.50299 -1.06335 -3.24118 
-4.53486 0.812805 -2.39356 -5.30272 -0.0772597 -2.81972 -6.18938 -0.98606 -3.16159 
-7.45249 -2.09258 -3.33916 -3.41858 0.719849 -2.1132 -4.25419 -0.235808 -2.49006 
-5.07327 -1.12826 -2.94597 -6.12656 -2.0802 -3.24419 -7.56113 -3.17927 -3.38493 
-2.51401 0.394359 -1.80215 -3.29998 -0.552046 -2.14483 -4.1778 -1.49927 -2.59556 
-5.0368 -2.3738 -3.07937 -6.22758 -3.33413 -3.31427 -7.73998 -4.26701 -3.38864 
-1.87897 -0.104765 -1.39337 -2.55812 -0.97452 -1.80484 -3.45424 -1.92338 -2.20059 
-4.33312 -2.8499 -2.74389 -5.27154 -3.75557 -3.20965 -6.54888 -4.64335 -3.36896 
-8.12829 -5.32095 -3.38398 -1.44505 -0.647882 -0.908307 -2.06904 -1.43276 -1.3941 
-2.90109 -2.29264 -1.80078 -3.81965 -3.23552 -2.26377 -4.73759 -4.17348 -2.83418 
-5.79731 -5.05253 -3.22754 -7.14833 -5.74694 -3.34832 -8.83907 -6.2052 -3.35157 
-1.44939 -2.22584 -0.370868 -1.94263 -3.37033 -0.288036 -2.1535 -3.01527 -0.912215 
-2.62619 -4.54453 -0.15951 -2.70315 -4.25751 -0.910037 -2.9598 -3.87971 -1.43376 
-3.50955 -5.57359 0.0108953 -3.38979 -5.47097 -0.826055 -3.46992 -5.20693 -1.5031 
-3.79022 -4.82342 -1.90045 -4.67867 -6.37271 0.0981059 -4.3299 -6.4392 -0.604722 
[...]
POINT_DATA 1002
FIELD FieldData 4
_paraPhi 1 1002 double
6.2831853072 3.1415926536 6.2831853072 3.1415926536 4.7123889804 4.7123889804 1.5707963268 1.5707963268 3.6951670125 
5.7296109483 2.5880182947 0.5535743589 6.2831853072 6.2831853072 6.2831853072 6.2831853072 3.1415926536 3.1415926536 
3.1415926536 3.1415926536 3.1415926536 6.1053039672 5.898798347 5.6768734901 5.4599499503 5.2659633393 5.1032165617 
4.9713148346 4.8656852733 4.7809517865 0.17788134 0.38438696014 0.60631181711 0.82323535693 1.0172219679 1.1799687454 
1.3118704726 1.4175000338 1.5022335207 6.1892828907 6.1070320098 6.035312792 5.9728339911 5.9183214791 5.8706119594 
5.8286879411 5.7916808611 5.7588591896 0.093902416448 0.17615329733 0.2478725152 0.31035131605 0.36486382811 0.41257334776 
0.45449736604 0.4915044461 0.52432611754 3.3194739936 3.5259796137 3.7479044707 3.9648280105 4.1588146215 4.321561399 
4.4534631262 4.5590926874 4.6438261743 2.9637113136 2.7572056934 2.5352808365 2.3183572967 2.1243706857 1.9616239082 
1.829722181 1.7240926197 1.6393591329 3.23549507 3.3177459509 3.3894651688 3.4519439696 3.5064564817 3.5541660013 
3.5960900196 3.6330970997 3.6659187711 3.0476902371 2.9654393563 2.8937201384 2.8312413375 2.7767288255 2.7290193058 
2.6870952876 2.6500882075 2.617266536 6.2831853072 6.2831853072 6.2831853072 6.2831853072 3.1415926536 3.1415926536 
3.1415926536 3.1415926536 3.1415926536 6.1053039672 5.898798347 5.6768734901 5.4599499503 5.2659633393 5.1032165617 
4.9713148346 4.8656852733 4.7809517865 0.17788134 0.38438696014 0.60631181711 0.82323535693 1.0172219679 1.1799687454 
1.3118704726 1.4175000338 1.5022335207 6.1892828907 6.1070320098 6.035312792 5.9728339911 5.9183214791 5.8706119594 
5.8286879411 5.7916808611 5.7588591896 0.093902416448 0.17615329733 0.2478725152 0.31035131605 0.36486382811 0.41257334776 
0.45449736604 0.4915044461 0.52432611754 3.3194739936 3.5259796137 3.7479044707 3.9648280105 4.1588146215 4.321561399 
4.4534631262 4.5590926874 4.6438261743 2.9637113136 2.7572056934 2.5352808365 2.3183572967 2.1243706857 1.9616239082 
1.829722181 1.7240926197 1.6393591329 3.23549507 3.3177459509 3.3894651688 3.4519439696 3.5064564817 3.5541660013 
3.5960900196 3.6330970997 3.6659187711 3.0476902371 2.9654393563 2.8937201384 2.8312413375 2.7767288255 2.7290193058 
2.6870952876 2.6500882075 2.617266536 4.7123889804 4.7123889804 4.7123889804 4.7123889804 4.7123889804 4.7123889804 
4.7123889804 4.7123889804 4.7123889804 4.6087898617 4.4991390697 4.3857031936 4.2712800401 4.1588146215 4.0509635631 
3.94975894 3.8564636551 3.7716124825 4.8159880991 4.9256388911 5.0390747672 5.1534979207 5.2659633393 5.3738143976 
5.4750190208 5.5683143056 5.6531654782 4.6087898617 4.4991390697 4.3857031936 4.2712800401 4.1588146215 4.0509635631 
3.94975894 3.8564636551 3.7716124825 4.8159880991 4.9256388911 5.0390747672 5.1534979207 5.2659633393 5.3738143976 
5.4750190208 5.5683143056 5.6531654782 1.5707963268 1.5707963268 1.5707963268 1.5707963268 1.5707963268 1.5707963268 
1.5707963268 1.5707963268 1.5707963268 1.6743954455 1.7840462375 1.8974821136 2.0119052671 2.1243706857 2.232221744 
2.3334263672 2.426721652 2.5115728246 1.4671972081 1.3575464161 1.24411054 1.1296873865 1.0172219679 0.90937090954 
0.80816628637 0.71487100155 0.63001982895 1.6743954455 1.7840462375 1.8974821136 2.0119052671 2.1243706857 2.232221744 
2.3334263672 2.426721652 2.5115728246 1.4671972081 1.3575464161 1.24411054 1.1296873865 1.0172219679 0.90937090954 
0.80816628637 0.71487100155 0.63001982895 3.6007720849 3.4966939854 3.3839471039 3.2645756454 3.1415926536 3.0186096618 
2.8992382033 2.7864913217 2.6824132222 5.8240058758 5.9280839753 6.0408308569 6.1602023154 6.2831853072 0.12298299178 
0.2423544503 0.35510133185 0.45917943135 6.0560271438 5.7885595667 5.9702140275 5.5125918794 5.6029703303 5.7885595667 
5.2659633393 5.2659633393 5.2659633393 5.2659633393 5.0674903122 5.0120975802 4.9155579264 4.7123889804 4.1588146215 
4.9155579264 4.8353719722 4.7123889804 4.5092200343 4.1588146215 3.6362183941 4.8004512023 4.7123889804 4.5894059886 
4.4126803806 4.1588146215 3.8218076305 3.4545639333 4.7123889804 4.6243267584 4.5092200343 4.3572876485 4.1588146215 
3.9121860814 3.6362183941 3.368750817 6.0174235957 5.9434319871 5.8263323547 5.8809213739 5.7674481418 5.6279784266 
5.8278025282 5.718968232 5.5891129425 5.4372443565 5.7823484065 5.678536687 5.5575666702 5.4192596322 5.2659633393 
5.743164462 5.6444075337 5.5314983644 5.4046708639 5.2659633393 5.1195510325 5.7091357773 5.6152775188 5.5096229709 
5.3926039573 5.2659633393 5.1329233157 4.9978930058 5.6793730533 5.5901633916 5.4910209005 5.3824597928 5.2659633393 
5.1440684722 5.0201624502 4.8979782167 5.5683143056 5.4750190208 5.4750190208 5.3738143976 5.3738143976 5.3738143976 
5.2659633393 5.2659633393 5.2659633393 5.2659633393 5.1534979207 5.1534979207 5.1534979207 5.1534979207 5.1534979207 
5.0390747672 5.0390747672 5.0390747672 5.0390747672 5.0390747672 5.0390747672 4.9256388911 4.9256388911 4.9256388911 
4.9256388911 4.9256388911 4.9256388911 4.9256388911 4.8159880991 4.8159880991 4.8159880991 4.8159880991 4.8159880991 
4.8159880991 4.8159880991 4.8159880991 4.6087898617 4.6087898617 4.4991390697 4.6087898617 4.4991390697 4.3857031936 
4.6087898617 4.4991390697 4.3857031936 4.2712800401 4.6087898617 4.4991390697 4.3857031936 4.2712800401 4.1588146215 
4.6087898617 4.4991390697 4.3857031936 4.2712800401 4.1588146215 4.0509635631 4.6087898617 4.4991390697 4.3857031936 
4.2712800401 4.1588146215 4.0509635631 3.94975894 4.6087898617 4.4991390697 4.3857031936 4.2712800401 4.1588146215 
4.0509635631 3.94975894 3.8564636551 4.526799744 4.4046155105 4.426884955 4.2807094886 4.2918546451 4.3052269283 
4.1588146215 4.1588146215 4.1588146215 4.1588146215 4.042318168 4.0321740035 4.0201070968 4.0055183285 3.9875336042 
3.9337570603 3.9151549899 3.8932795963 3.8672112905 3.8356650183 3.7967995342 3.8346145692 3.809500442 3.7803704271 
3.7462412737 3.7058097288 3.657329819 3.5984456061 3.7454049075 3.7156421835 3.6816134988 3.6424295543 3.5969754326 
3.5438565869 3.4813459737 3.4073543651 3.5642842451 3.4524645613 3.5233842518 3.3320300872 3.403123212 3.4773852225 
3.20576226 3.2746326772 3.348015857 3.4255060145 3.0774230472 3.1415926536 3.2112816139 3.2864685043 3.3668817272 
2.95115522 3.00855263 3.0719036933 3.1415926536 3.2178377658 3.3005964304 2.8307207459 2.8800620952 2.9351694502 
2.9967168029 3.0653475414 3.1415926536 3.225752376 2.718901062 2.7598010554 2.8058000847 2.8576792927 2.91630358 
2.9825888767 3.0574329311 3.1415926536 3.5642842451 3.5233842518 3.4524645613 3.4773852225 3.403123212 3.3320300872 
3.4255060145 3.348015857 3.2746326772 3.20576226 3.3668817272 3.2864685043 3.2112816139 3.1415926536 3.0774230472 
3.3005964304 3.2178377658 3.1415926536 3.0719036933 3.00855263 2.95115522 3.225752376 3.1415926536 3.0653475414 
2.9967168029 2.9351694502 2.8800620952 2.8307207459 3.1415926536 3.0574329311 2.9825888767 2.91630358 2.8576792927 
2.8058000847 2.7598010554 2.718901062 4.526799744 4.426884955 4.4046155105 4.3052269283 4.2918546451 4.2807094886 
4.1588146215 4.1588146215 4.1588146215 4.1588146215 3.9875336042 4.0055183285 4.0201070968 4.0321740035 4.042318168 
3.7967995342 3.8356650183 3.8672112905 3.8932795963 3.9151549899 3.9337570603 3.5984456061 3.657329819 3.7058097288 
3.7462412737 3.7803704271 3.809500442 3.8346145692 3.4073543651 3.4813459737 3.5438565869 3.5969754326 3.6424295543 
3.6816134988 3.7156421835 3.7454049075 4.7123889804 4.8004512023 4.6243267584 4.9155579264 4.7123889804 4.5092200343 
5.0674903122 4.8353719722 4.5894059886 4.3572876485 5.2659633393 5.0120975802 4.7123889804 4.4126803806 4.1588146215 
5.5125918794 5.2659633393 4.9155579264 4.5092200343 4.1588146215 3.9121860814 5.7885595667 5.6029703303 5.2659633393 
4.7123889804 4.1588146215 3.8218076305 3.6362183941 6.0560271438 5.9702140275 5.7885595667 5.2659633393 4.1588146215 
3.6362183941 3.4545639333 3.368750817 0.22715816343 0.49462574053 0.3129712797 0.77059342779 0.68021497688 0.49462574053 
1.0172219679 1.0172219679 1.0172219679 1.0172219679 1.2156949949 1.271087727 1.3676273807 1.5707963268 2.1243706857 
1.3676273807 1.447813335 1.5707963268 1.7739652728 2.1243706857 2.6469669131 1.4827341049 1.5707963268 1.6937793186 
1.8705049266 2.1243706857 2.4613776767 2.8286213739 1.5707963268 1.6588585487 1.7739652728 1.9258976586 2.1243706857 
2.3709992258 2.6469669131 2.9144344902 1.7563855631 1.8785697967 1.8563003522 2.0024758186 1.9913306621 1.9779583789 
2.1243706857 2.1243706857 2.1243706857 2.1243706857 2.2408671392 2.2510113037 2.2630782103 2.2776669786 2.295651703 
2.3494282469 2.3680303173 2.3899057108 2.4159740166 2.4475202889 2.486385773 2.448570738 2.4736848652 2.5028148801 
2.5369440334 2.5773755784 2.6258554882 2.6847397011 2.5377803997 2.5675431237 2.6015718084 2.6407557529 2.6862098746 
2.7393287203 2.8018393335 2.8758309421 1.6743954455 1.6743954455 1.7840462375 1.6743954455 1.7840462375 1.8974821136 
1.6743954455 1.7840462375 1.8974821136 2.0119052671 1.6743954455 1.7840462375 1.8974821136 2.0119052671 2.1243706857 
1.6743954455 1.7840462375 1.8974821136 2.0119052671 2.1243706857 2.232221744 1.6743954455 1.7840462375 1.8974821136 
2.0119052671 2.1243706857 2.232221744 2.3334263672 1.6743954455 1.7840462375 1.8974821136 2.0119052671 2.1243706857 
2.232221744 2.3334263672 2.426721652 1.4671972081 1.3575464161 1.4671972081 1.24411054 1.3575464161 1.4671972081 
1.1296873865 1.24411054 1.3575464161 1.4671972081 1.0172219679 1.1296873865 1.24411054 1.3575464161 1.4671972081 
0.90937090954 1.0172219679 1.1296873865 1.24411054 1.3575464161 1.4671972081 0.80816628637 0.90937090954 1.0172219679 
1.1296873865 1.24411054 1.3575464161 1.4671972081 0.71487100155 0.80816628637 0.90937090954 1.0172219679 1.1296873865 
1.24411054 1.3575464161 1.4671972081 0.60381225391 0.57404952988 0.69302191562 0.54002084522 0.66790778838 0.79216440667 
0.50083690068 0.63877777351 0.77356233629 0.90072551443 0.45538277901 0.60464862014 0.75168694275 0.89058134991 1.0172219679 
0.40226393329 0.56421707518 0.72561863695 0.87851444325 1.0172219679 1.139116835 0.33975332011 0.51573716537 0.69407236469 
0.86392567495 1.0172219679 1.1502619915 1.2630228569 0.26576171152 0.45685295248 0.6552068806 0.84594095064 1.0172219679 
1.1636342747 1.2852923014 1.3852070904 0.22715816343 0.3129712797 0.49462574053 0.49462574053 0.68021497688 0.77059342779 
1.0172219679 1.0172219679 1.0172219679 1.0172219679 2.1243706857 1.5707963268 1.3676273807 1.271087727 1.2156949949 
2.6469669131 2.1243706857 1.7739652728 1.5707963268 1.447813335 1.3676273807 2.8286213739 2.4613776767 2.1243706857 
1.8705049266 1.6937793186 1.5707963268 1.4827341049 2.9144344902 2.6469669131 2.3709992258 2.1243706857 1.9258976586 
1.7739652728 1.6588585487 1.5707963268 1.7563855631 1.8563003522 1.8785697967 1.9779583789 1.9913306621 2.0024758186 
2.1243706857 2.1243706857 2.1243706857 2.1243706857 2.295651703 2.2776669786 2.2630782103 2.2510113037 2.2408671392 
2.486385773 2.4475202889 2.4159740166 2.3899057108 2.3680303173 2.3494282469 2.6847397011 2.6258554882 2.5773755784 
2.5369440334 2.5028148801 2.4736848652 2.448570738 2.8758309421 2.8018393335 2.7393287203 2.6862098746 2.6407557529 
2.6015718084 2.5675431237 2.5377803997 5.8604937156 5.901393709 5.9723133995 5.9473927383 6.0216547488 6.0927478736 
5.9992719463 6.0767621038 6.1501452836 6.2190157008 6.0578962336 6.1383094565 6.2134963469 0 0.064169606361 
6.1241815303 6.206940195 6.2831853072 0.069688960264 0.13304002361 0.19043743361 6.1990255847 0 0.07624511221 
0.14487585072 0.20642320337 0.26153055843 0.3108719077 0 0.084159722458 0.15900377685 0.22528907359 0.28391336087 
0.3357925689 0.38179159818 0.42269159155 5.8604937156 5.9723133995 5.901393709 6.0927478736 6.0216547488 5.9473927383 
6.2190157008 6.1501452836 6.0767621038 5.9992719463 0.064169606361 0 6.2134963469 6.1383094565 6.0578962336 
0.19043743361 0.13304002361 0.069688960264 6.2831853072 6.206940195 6.1241815303 0.3108719077 0.26153055843 0.20642320337 
0.14487585072 0.07624511221 6.2831853072 6.1990255847 0.42269159155 0.38179159818 0.3357925689 0.28391336087 0.22528907359 
0.15900377685 0.084159722458 0 5.6793730533 5.7091357773 5.5901633916 5.743164462 5.6152775188 5.4910209005 
5.7823484065 5.6444075337 5.5096229709 5.3824597928 5.8278025282 5.678536687 5.5314983644 5.3926039573 5.2659633393 
5.8809213739 5.718968232 5.5575666702 5.4046708639 5.2659633393 5.1440684722 5.9434319871 5.7674481418 5.5891129425 
5.4192596322 5.2659633393 5.1329233157 5.0201624502 6.0174235957 5.8263323547 5.6279784266 5.4372443565 5.2659633393 
5.1195510325 4.9978930058 4.8979782167 1.3852070904 1.2852923014 1.2630228569 1.1636342747 1.1502619915 1.139116835 
1.0172219679 1.0172219679 1.0172219679 1.0172219679 0.84594095064 0.86392567495 0.87851444325 0.89058134991 0.90072551443 
0.6552068806 0.69407236469 0.72561863695 0.75168694275 0.77356233629 0.79216440667 0.45685295248 0.51573716537 0.56421707518 
0.60464862014 0.63877777351 0.66790778838 0.69302191562 0.26576171152 0.33975332011 0.40226393329 0.45538277901 0.50083690068 
0.54002084522 0.57404952988 0.60381225391 
_paraPhiHalf 1 1002 double
0 3.1415926536 0 3.1415926536 1.5707963268 1.5707963268 1.5707963268 1.5707963268 2.5880182947 
0.5535743589 2.5880182947 0.5535743589 0 0 0 0 3.1415926536 3.1415926536 
3.1415926536 3.1415926536 3.1415926536 0.17788134 0.38438696014 0.60631181711 0.82323535693 1.0172219679 1.1799687454 
1.3118704726 1.4175000338 1.5022335207 0.17788134 0.38438696014 0.60631181711 0.82323535693 1.0172219679 1.1799687454 
1.3118704726 1.4175000338 1.5022335207 0.093902416448 0.17615329733 0.2478725152 0.31035131605 0.36486382811 0.41257334776 
0.45449736604 0.4915044461 0.52432611754 0.093902416448 0.17615329733 0.2478725152 0.31035131605 0.36486382811 0.41257334776 
0.45449736604 0.4915044461 0.52432611754 2.9637113136 2.7572056934 2.5352808365 2.3183572967 2.1243706857 1.9616239082 
1.829722181 1.7240926197 1.6393591329 2.9637113136 2.7572056934 2.5352808365 2.3183572967 2.1243706857 1.9616239082 
1.829722181 1.7240926197 1.6393591329 3.0476902371 2.9654393563 2.8937201384 2.8312413375 2.7767288255 2.7290193058 
2.6870952876 2.6500882075 2.617266536 3.0476902371 2.9654393563 2.8937201384 2.8312413375 2.7767288255 2.7290193058 
2.6870952876 2.6500882075 2.617266536 0 0 0 0 3.1415926536 3.1415926536 
3.1415926536 3.1415926536 3.1415926536 0.17788134 0.38438696014 0.60631181711 0.82323535693 1.0172219679 1.1799687454 
1.3118704726 1.4175000338 1.5022335207 0.17788134 0.38438696014 0.60631181711 0.82323535693 1.0172219679 1.1799687454 
1.3118704726 1.4175000338 1.5022335207 0.093902416448 0.17615329733 0.2478725152 0.31035131605 0.36486382811 0.41257334776 
0.45449736604 0.4915044461 0.52432611754 0.093902416448 0.17615329733 0.2478725152 0.31035131605 0.36486382811 0.41257334776 
0.45449736604 0.4915044461 0.52432611754 2.9637113136 2.7572056934 2.5352808365 2.3183572967 2.1243706857 1.9616239082 
1.829722181 1.7240926197 1.6393591329 2.9637113136 2.7572056934 2.5352808365 2.3183572967 2.1243706857 1.9616239082 
1.829722181 1.7240926197 1.6393591329 3.0476902371 2.9654393563 2.8937201384 2.8312413375 2.7767288255 2.7290193058 
2.6870952876 2.6500882075 2.617266536 3.0476902371 2.9654393563 2.8937201384 2.8312413375 2.7767288255 2.7290193058 
2.6870952876 2.6500882075 2.617266536 1.5707963268 1.5707963268 1.5707963268 1.5707963268 1.5707963268 1.5707963268 
1.5707963268 1.5707963268 1.5707963268 1.6743954455 1.7840462375 1.8974821136 2.0119052671 2.1243706857 2.232221744 
2.3334263672 2.426721652 2.5115728246 1.4671972081 1.3575464161 1.24411054 1.1296873865 1.0172219679 0.90937090954 
0.80816628637 0.71487100155 0.63001982895 1.6743954455 1.7840462375 1.8974821136 2.0119052671 2.1243706857 2.232221744 
2.3334263672 2.426721652 2.5115728246 1.4671972081 1.3575464161 1.24411054 1.1296873865 1.0172219679 0.90937090954 
0.80816628637 0.71487100155 0.63001982895 1.5707963268 1.5707963268 1.5707963268 1.5707963268 1.5707963268 1.5707963268 
1.5707963268 1.5707963268 1.5707963268 1.6743954455 1.7840462375 1.8974821136 2.0119052671 2.1243706857 2.232221744 
2.3334263672 2.426721652 2.5115728246 1.4671972081 1.3575464161 1.24411054 1.1296873865 1.0172219679 0.90937090954 
0.80816628637 0.71487100155 0.63001982895 1.6743954455 1.7840462375 1.8974821136 2.0119052671 2.1243706857 2.232221744 
2.3334263672 2.426721652 2.5115728246 1.4671972081 1.3575464161 1.24411054 1.1296873865 1.0172219679 0.90937090954 
0.80816628637 0.71487100155 0.63001982895 2.6824132222 2.7864913217 2.8992382033 3.0186096618 3.1415926536 3.0186096618 
2.8992382033 2.7864913217 2.6824132222 0.45917943135 0.35510133185 0.2423544503 0.12298299178 0 0.12298299178 
0.2423544503 0.35510133185 0.45917943135 0.22715816343 0.49462574053 0.3129712797 0.77059342779 0.68021497688 0.49462574053 
1.0172219679 1.0172219679 1.0172219679 1.0172219679 1.2156949949 1.271087727 1.3676273807 1.5707963268 2.1243706857 
1.3676273807 1.447813335 1.5707963268 1.7739652728 2.1243706857 2.6469669131 1.4827341049 1.5707963268 1.6937793186 
1.8705049266 2.1243706857 2.4613776767 2.8286213739 1.5707963268 1.6588585487 1.7739652728 1.9258976586 2.1243706857 
2.3709992258 2.6469669131 2.9144344902 0.26576171152 0.33975332011 0.45685295248 0.40226393329 0.51573716537 0.6552068806 
0.45538277901 0.56421707518 0.69407236469 0.84594095064 0.50083690068 0.60464862014 0.72561863695 0.86392567495 1.0172219679 
0.54002084522 0.63877777351 0.75168694275 0.87851444325 1.0172219679 1.1636342747 0.57404952988 0.66790778838 0.77356233629 
0.89058134991 1.0172219679 1.1502619915 1.2852923014 0.60381225391 0.69302191562 0.79216440667 0.90072551443 1.0172219679 
1.139116835 1.2630228569 1.3852070904 0.71487100155 0.80816628637 0.80816628637 0.90937090954 0.90937090954 0.90937090954 
1.0172219679 1.0172219679 1.0172219679 1.0172219679 1.1296873865 1.1296873865 1.1296873865 1.1296873865 1.1296873865 
1.24411054 1.24411054 1.24411054 1.24411054 1.24411054 1.24411054 1.3575464161 1.3575464161 1.3575464161 
1.3575464161 1.3575464161 1.3575464161 1.3575464161 1.4671972081 1.4671972081 1.4671972081 1.4671972081 1.4671972081 
1.4671972081 1.4671972081 1.4671972081 1.6743954455 1.6743954455 1.7840462375 1.6743954455 1.7840462375 1.8974821136 
1.6743954455 1.7840462375 1.8974821136 2.0119052671 1.6743954455 1.7840462375 1.8974821136 2.0119052671 2.1243706857 
1.6743954455 1.7840462375 1.8974821136 2.0119052671 2.1243706857 2.232221744 1.6743954455 1.7840462375 1.8974821136 
2.0119052671 2.1243706857 2.232221744 2.3334263672 1.6743954455 1.7840462375 1.8974821136 2.0119052671 2.1243706857 
2.232221744 2.3334263672 2.426721652 1.7563855631 1.8785697967 1.8563003522 2.0024758186 1.9913306621 1.9779583789 
2.1243706857 2.1243706857 2.1243706857 2.1243706857 2.2408671392 2.2510113037 2.2630782103 2.2776669786 2.295651703 
2.3494282469 2.3680303173 2.3899057108 2.4159740166 2.4475202889 2.486385773 2.448570738 2.4736848652 2.5028148801 
2.5369440334 2.5773755784 2.6258554882 2.6847397011 2.5377803997 2.5675431237 2.6015718084 2.6407557529 2.6862098746 
2.7393287203 2.8018393335 2.8758309421 2.718901062 2.8307207459 2.7598010554 2.95115522 2.8800620952 2.8058000847 
3.0774230472 3.00855263 2.9351694502 2.8576792927 3.0774230472 3.1415926536 3.0719036933 2.9967168029 2.91630358 
2.95115522 3.00855263 3.0719036933 3.1415926536 3.0653475414 2.9825888767 2.8307207459 2.8800620952 2.9351694502 
2.9967168029 3.0653475414 3.1415926536 3.0574329311 2.718901062 2.7598010554 2.8058000847 2.8576792927 2.91630358 
2.9825888767 3.0574329311 3.1415926536 2.718901062 2.7598010554 2.8307207459 2.8058000847 2.8800620952 2.95115522 
2.8576792927 2.9351694502 3.00855263 3.0774230472 2.91630358 2.9967168029 3.0719036933 3.1415926536 3.0774230472 
2.9825888767 3.0653475414 3.1415926536 3.0719036933 3.00855263 2.95115522 3.0574329311 3.1415926536 3.0653475414 