# vtk DataFile Version 5.1
vtk output
ASCII
DATASET POLYDATA
POINTS 1002 float
-10.4896 0.414133 -2.35293 -25.1126 -14.3898 -5.01902 -9.71495 -2.25557 3.8278 
-23.8546 -15.3041 -0.189855 -13.2139 -6.81503 -3.1723 -13.929 -7.98354 0.338493 
-21.3334 -2.90302 -0.612871 -21.8644 -3.90258 3.31966 -22.4664 -27.7767 -5.38979 
-1.20315 -1.75409 0.137572 -29.1026 -19.9445 -3.47337 -9.96039 5.62406 2.55346 
-11.4832 -0.144797 -2.47247 -12.6923 -0.818603 -2.59711 -14.1506 -1.73658 -2.66534 
-15.8552 -2.95898 -2.63073 -17.7977 -4.48654 -2.63003 -19.8829 -6.3508 -2.8848 
-21.822 -8.46688 -3.40522 -23.3458 -10.6022 -4.01681 -24.412 -12.593 -4.57353 
-10.2544 -0.00474225 -2.65617 -10.0848 -0.559461 -2.9597 -9.99755 -1.35122 -3.17358 
-10.0287 -2.24637 -3.34401 -10.2826 -3.11398 -3.60907 -10.7653 -4.02341 -3.85651 
-11.2631 -4.91703 -3.83826 -11.697 -5.64372 -3.60861 -12.2963 -6.24304 -3.37258 
-11.3748 0.482577 -2.14508 -12.4087 0.522883 -1.95916 -13.5426 0.467404 -1.77155 
-14.6903 0.240569 -1.51018 -15.8684 -0.163531 -1.21863 -17.1236 -0.678995 -1.01333 
-18.3592 -1.24037 -0.878751 -19.4666 -1.81834 -0.757695 -20.4508 -2.38331 -0.666417 
-9.37866 0.692732 -2.39312 -8.15169 0.945075 -2.36921 -6.82403 1.11636 -2.29685 
-5.45488 1.14146 -2.22016 -4.12531 0.996447 -2.0768 -3.00928 0.690591 -1.76311 
-2.22861 0.221873 -1.29321 -1.6874 -0.400343 -0.765075 -1.31814 -1.09772 -0.272812 
-10.1057 1.07612 -2.11461 -9.75659 1.87694 -1.85834 -9.47594 2.65734 -1.51985 
-9.29797 3.33905 -1.0773 -9.18637 4.01622 -0.561267 -9.11733 4.59573 0.0303408 
-9.167 4.94625 0.686133 -9.37536 5.22531 1.34419 -9.6698 5.50381 1.96891 
-24.6093 -14.2403 -4.98902 -24.0204 -13.9529 -4.88359 -23.2979 -13.47 -4.72084 
-22.4259 -12.6762 -4.4658 -21.4412 -11.5313 -4.07128 -20.1997 -10.1448 -3.59401 
-18.4947 -8.7193 -3.1767 -16.522 -7.56448 -2.9658 -14.7006 -6.94206 -3.00374 
-25.1889 -13.3512 -4.73232 -25.1296 -12.1821 -4.37621 -24.9118 -10.9001 -3.95003 
-24.5591 -9.51201 -3.47574 -24.0705 -8.10902 -2.99169 -23.4765 -6.81871 -2.48526 
-22.8819 -5.66345 -1.94793 -22.3369 -4.62091 -1.44301 -21.8214 -3.70061 -1.00708 
-25.3102 -16.1106 -5.41479 -25.4007 -17.9517 -5.80648 -25.3906 -19.8602 -6.19179 
-25.1475 -21.7986 -6.54113 -24.6612 -23.6914 -6.7652 -24.1924 -25.3885 -6.7827 
-23.7768 -26.7183 -6.60745 -23.2413 -27.5612 -6.30092 -22.718 -27.8925 -5.89055 
-25.7244 -15.4929 -5.21742 -26.2986 -16.5631 -5.36004 -26.851 -17.6002 -5.49461 
-27.384 -18.6329 -5.59265 -27.848 -19.5485 -5.5345 -28.1967 -20.1554 -5.2939 
-28.4885 -20.4273 -4.94055 -28.7882 -20.453 -4.5016 -29.0241 -20.2808 -3.99412 
-10.8109 -2.87363 3.81956 -12.0633 -3.54378 3.75301 -13.5725 -4.31985 3.56845 
-15.3777 -5.28282 3.23078 -17.3163 -6.47208 2.77022 -19.1975 -7.94865 2.18317 
-20.8755 -9.73735 1.47662 -22.1978 -11.6731 0.793183 -23.1509 -13.5527 0.247874 
-9.68271 -2.88821 3.62805 -9.74557 -3.55312 3.37155 -9.88911 -4.18799 3.00045 
-10.1036 -4.83456 2.59372 -10.4941 -5.52061 2.23521 -11.0684 -6.14705 1.84146 
-11.6942 -6.65889 1.38693 -12.3644 -7.11335 0.989337 -13.1285 -7.5545 0.665273 
-10.4402 -2.07191 4.076 -11.2163 -1.98133 4.36728 -12.1796 -1.95958 4.53626 
-13.5392 -1.982 4.47278 -15.1783 -2.11528 4.31772 -16.7773 -2.44361 4.19276 
-18.295 -2.91201 4.01671 -19.7541 -3.35315 3.78336 -20.9798 -3.66838 3.56338 
-8.60107 -2.04411 3.69153 -7.46239 -1.87159 3.51962 -6.38601 -1.72118 3.25211 
-5.31376 -1.56556 2.91098 -4.22098 -1.4293 2.57731 -3.27918 -1.38415 2.19886 
-2.50863 -1.45265 1.6859 -1.80378 -1.5771 1.12389 -1.30699 -1.68704 0.615982 
-9.11194 -1.47758 3.9476 -8.52632 -0.600865 4.07875 -8.0367 0.422446 4.1981 
-7.74686 1.61547 4.22537 -7.67785 2.82033 4.12031 -7.79968 3.82929 3.95586 
-8.18185 4.63757 3.76358 -8.81272 5.27215 3.46459 -9.46388 5.61978 3.03483 
-23.3318 -14.8898 -0.170015 -22.7098 -14.3236 -0.118441 -21.9727 -13.5689 -0.027231 
-21.1176 -12.6099 0.11265 -20.1174 -11.5126 0.290422 -18.9677 -10.4209 0.426411 
-17.7322 -9.47685 0.46587 -16.4595 -8.75962 0.459643 -15.1717 -8.27764 0.432329 
-23.9548 -14.53 0.0621212 -24.0327 -13.5687 0.349291 -24.0459 -12.4473 0.684748 
-23.9616 -11.2717 1.05493 -23.7745 -10.0366 1.46632 -23.467 -8.68999 1.91324 
-23.0649 -7.36893 2.33044 -22.6594 -6.17231 2.70047 -22.2768 -5.02126 3.04412 
-24.1493 -16.8799 -0.623848 -24.3658 -18.6833 -1.0943 -24.4188 -20.6596 -1.51643 
-24.2836 -22.6473 -1.8922 -24.0665 -24.4831 -2.36768 -23.8 -26.0253 -2.97784 
-23.372 -27.1606 -3.60493 -22.8534 -27.8411 -4.22777 -22.5115 -28.0377 -4.85573 
-24.5437 -16.6085 -0.455892 -25.2303 -17.9243 -0.756622 -25.8705 -19.062 -1.09088 
-26.4868 -19.911 -1.4431 -27.1227 -20.5174 -1.81327 -27.6825 -20.8744 -2.16933 
-28.1028 -20.9011 -2.47759 -28.4901 -20.6675 -2.78123 -28.862 -20.3327 -3.12198 
-13.075 -7.18209 -3.0962 -12.9447 -7.47552 -2.85404 -12.7901 -7.6847 -2.50169 
-12.7312 -7.89438 -2.13564 -12.849 -8.12688 -1.70903 -13.0201 -8.27903 -1.21946 
-13.1758 -8.29318 -0.78295 -13.389 -8.21737 -0.392986 -13.6619 -8.10586 -0.00217125 
-15.3804 -7.63477 -2.90181 -17.7714 -9.18035 -2.84916 -19.652 -11.5093 -3.17727 
-20.8366 -14.4697 -3.81082 -21.7112 -17.6985 -4.44798 -22.3208 -20.5934 -4.88234 
-22.5623 -22.8664 -5.16975 -22.6021 -24.777 -5.39261 -22.5472 -26.4758 -5.48918 
-11.3361 -6.68013 -3.47348 -9.6594 -6.63804 -3.62947 -8.10549 -6.37408 -3.49923 
-6.67538 -5.85865 -3.09042 -5.40719 -5.19407 -2.54499 -4.25242 -4.47358 -2.05049 
-3.19364 -3.78678 -1.57585 -2.26966 -3.12751 -0.979762 -1.56875 -2.44599 -0.353433 
-15.543 -8.67597 0.0214294 -17.2164 -9.78202 -0.413694 -18.7649 -11.6049 -0.938231 
-20.1021 -14.2242 -1.5728 -21.18 -17.145 -2.28415 -21.9369 -19.8281 -2.92212 
-22.3867 -22.2988 -3.51896 -22.5529 -24.6264 -4.2072 -22.5019 -26.5237 -4.88318 
-12.1943 -7.57282 0.363378 -10.4326 -7.30005 0.333 -8.69508 -7.10131 0.357208 
-6.99267 -6.84873 0.471895 -5.47558 -6.42687 0.559625 -4.26397 -5.75161 0.530341 
-3.20579 -4.83486 0.434023 -2.22752 -3.81701 0.336176 -1.52203 -2.78815 0.242976 
-21.5576 -2.74464 -0.317078 -21.7773 -2.57543 0.0394351 -21.984 -2.37959 0.457927 
-22.1654 -2.19137 0.971786 -22.2633 -2.1384 1.55201 -22.2175 -2.27965 2.08505 
-22.1024 -2.53889 2.5467 -22.0362 -2.89296 2.94882 -21.99 -3.36894 3.21726 
-22.4981 -3.93063 -0.837684 -23.7334 -5.17016 -1.13203 -25.0169 -6.6379 -1.49152 
-26.2953 -8.15681 -1.87656 -27.4146 -9.75772 -2.27601 -28.2582 -11.9293 -2.72991 
-28.8572 -14.6437 -3.1727 -29.211 -17.0642 -3.44272 -29.2717 -18.7409 -3.50623 
-20.302 -1.80785 -0.245861 -19.186 -0.626176 0.132904 -18.0123 0.545727 0.484558 
-16.8116 1.61138 0.810663 -15.6235 2.62158 1.1512 -14.4281 3.58555 1.46555 
-13.1853 4.35237 1.7273 -11.9839 4.89306 2.00418 -10.9229 5.31499 2.30245 
-22.8601 -4.91448 2.78424 -23.9597 -6.25543 2.03087 -25.2597 -7.90282 1.23236 
-26.5884 -9.67821 0.561674 -27.7004 -11.5288 -0.0706455 -28.5021 -13.5299 -0.807492 
-28.9829 -15.5668 -1.59472 -29.1897 -17.3615 -2.32529 -29.2067 -18.7875 -2.95096 
-20.8374 -2.6599 3.65105 -19.555 -1.35615 3.86699 -18.1516 0.0152282 4.04015 
-16.7001 1.43664 4.19929 -15.2248 2.73068 4.26849 -13.9308 3.67181 4.17674 
-12.8782 4.33682 3.89943 -11.8735 4.91851 3.47152 -10.8716 5.3795 2.99839 
-22.6469 -28.7879 -5.46415 -23.441 -29.3088 -5.46195 -24.878 -29.2978 -5.43608 
-26.2624 -28.6829 -5.30535 -27.07 -27.5457 -5.02579 -27.6194 -26.2212 -4.73249 
-28.1639 -24.793 -4.45984 -28.5649 -23.1305 -4.12426 -28.8456 -21.4201 -3.77 
-1.12837 -0.610448 0.301116 -1.29484 0.639145 0.474838 -1.71554 1.84504 0.719167 
-2.46285 2.90215 0.980969 -3.48019 3.84089 1.1678 -4.65548 4.70555 1.35209 
-5.99805 5.39011 1.66508 -7.43185 5.74821 2.05343 -8.77696 5.78661 2.36674 
-11.3558 -0.600901 -2.80247 -11.3086 -1.25994 -3.08296 -12.6945 -1.38477 -2.89883 
-11.337 -2.10589 -3.25057 -12.7481 -2.13154 -3.1093 -14.312 -2.43911 -2.88378 
-11.5207 -2.9843 -3.43541 -12.8733 -2.94955 -3.21831 -14.5084 -3.20801 -3.01009 
-16.259 -3.77547 -2.79982 -11.9502 -3.88616 -3.68715 -13.2233 -3.82524 -3.33602 
-14.8617 -4.05116 -3.0446 -16.7824 -4.67069 -2.92802 -18.5147 -5.51347 -2.8766 
-12.4989 -4.76065 -3.73334 -13.8502 -4.76653 -3.40627 -15.538 -5.09225 -3.05728 
-17.5403 -5.83578 -3.00173 -19.3875 -6.8038 -3.14447 -20.7654 -7.71889 -3.2713 
-13.0393 -5.4824 -3.47307 -14.6292 -5.63792 -3.27329 -16.4836 -6.22728 -3.07575 
-18.476 -7.24056 -3.11804 -20.2838 -8.40748 -3.41537 -21.6263 -9.38646 -3.69461 
-22.573 -10.0898 -3.8705 -13.728 -6.16533 -3.17453 -15.5199 -6.52295 -3.05932 
-17.5246 -7.40339 -3.10132 -19.4096 -8.67174 -3.34133 -20.9755 -10.0277 -3.73997 
-22.1984 -11.1271 -4.10826 -23.1049 -11.8413 -4.33428 -23.8082 -12.2895 -4.47803 
-9.0505 0.204184 -2.69375 -7.73056 0.365238 -2.66795 -8.79887 -0.478859 -2.98371 
-6.35854 0.422983 -2.59816 -7.44193 -0.452592 -2.96287 -8.66229 -1.39739 -3.19873 
-4.98333 0.307703 -2.45495 -6.10796 -0.519942 -2.86096 -7.31768 -1.46537 -3.19225 
-8.68554 -2.33629 -3.40783 -3.71075 -0.00698898 -2.17886 -4.80704 -0.783502 -2.6047 
-6.06915 -1.65007 -3.04747 -7.35216 -2.47358 -3.39651 -8.98013 -3.2567 -3.67091 
-2.77716 -0.502466 -1.79346 -3.68155 -1.27944 -2.25335 -4.93215 -2.09133 -2.73044 
-6.18893 -2.84721 -3.21438 -7.66666 -3.56148 -3.59321 -9.52274 -4.31168 -3.83494 
-2.19785 -1.13121 -1.33455 -2.94894 -1.90456 -1.88527 -4.04633 -2.6986 -2.36334 
-5.28033 -3.45568 -2.87302 -6.5964 -4.1358 -3.37507 -8.27642 -4.80606 -3.71307 
-10.0754 -5.35252 -3.8037 -1.79344 -1.81093 -0.831965 -2.52557 -2.53786 -1.45963 
-3.50438 -3.27265 -1.98889 -4.65919 -4.02739 -2.46091 -5.88175 -4.75036 -3.00321 
-7.30835 -5.4022 -3.4883 -8.96023 -5.91084 -3.7314 -10.6059 -6.13956 -3.66892 
-2.04739 -3.51946 -0.319862 -2.87569 -4.61684 -0.290195 -2.89554 -4.21904 -0.993633 
-3.84514 -5.71522 -0.197509 -3.71297 -5.39266 -0.9753 -3.88639 -4.90035 -1.58441 
-4.91115 -6.60311 -0.032517 -4.6104 -6.54432 -0.846173 -4.66686 -6.12915 -1.56886 
-4.99776 -5.60676 -2.08617 -6.32321 -7.09844 0.0543068 -5.79913 -7.32791 -0.631596 
-5.63739 -7.23389 -1.45082 -5.87326 -6.76436 -2.1059 -6.27309 -6.26571 -2.62119 
[...]
POINT_DATA 1002
FIELD FieldData 4
_paraPhi 1 1002 double
6.2831853072 3.1415926536 6.2831853072 3.1415926536 4.7123889804 4.7123889804 1.5707963268 1.5707963268 3.6951670125 
5.7296109483 2.5880182947 0.5535743589 6.2831853072 6.2831853072 6.2831853072 6.2831853072 3.1415926536 3.1415926536 
3.1415926536 3.1415926536 3.1415926536 6.1053039672 5.898798347 5.6768734901 5.4599499503 5.2659633393 5.1032165617 
4.9713148346 4.8656852733 4.7809517865 0.17788134 0.38438696014 0.60631181711 0.82323535693 1.0172219679 1.1799687454 
1.3118704726 1.4175000338 1.5022335207 6.1892828907 6.1070320098 6.035312792 5.9728339911 5.9183214791 5.8706119594 
5.8286879411 5.7916808611 5.7588591896 0.093902416448 0.17615329733 0.2478725152 0.31035131605 0.36486382811 0.41257334776 
0.45449736604 0.4915044461 0.52432611754 3.3194739936 3.5259796137 3.7479044707 3.9648280105 4.1588146215 4.321561399 
4.4534631262 4.5590926874 4.6438261743 2.9637113136 2.7572056934 2.5352808365 2.3183572967 2.1243706857 1.9616239082 
1.829722181 1.7240926197 1.6393591329 3.23549507 3.3177459509 3.3894651688 3.4519439696 3.5064564817 3.5541660013 
3.5960900196 3.6330970997 3.6659187711 3.0476902371 2.9654393563 2.8937201384 2.8312413375 2.7767288255 2.7290193058 
2.6870952876 2.6500882075 2.617266536 6.2831853072 6.2831853072 6.2831853072 6.2831853072 3.1415926536 3.1415926536 
3.1415926536 3.1415926536 3.1415926536 6.1053039672 5.898798347 5.6768734901 5.4599499503 5.2659633393 5.1032165617 
4.9713148346 4.8656852733 4.7809517865 0.17788134 0.38438696014 0.60631181711 0.82323535693 1.0172219679 1.1799687454 
1.3118704726 1.4175000338 1.5022335207 6.1892828907 6.1070320098 6.035312792 5.9728339911 5.9183214791 5.8706119594 
5.8286879411 5.7916808611 5.7588591896 0.093902416448 0.17615329733 0.2478725152 0.31035131605 0.36486382811 0.41257334776 
0.45449736604 0.4915044461 0.52432611754 3.3194739936 3.5259796137 3.7479044707 3.9648280105 4.1588146215 4.321561399 
4.4534631262 4.5590926874 4.6438261743 2.9637113136 2.7572056934 2.5352808365 2.3183572967 2.1243706857 1.9616239082 
1.829722181 1.7240926197 1.6393591329 3.23549507 3.3177459509 3.3894651688 3.4519439696 3.5064564817 3.5541660013 
3.5960900196 3.6330970997 3.6659187711 3.0476902371 2.9654393563 2.8937201384 2.8312413375 2.7767288255 2.7290193058 
2.6870952876 2.6500882075 2.617266536 4.7123889804 4.7123889804 4.7123889804 4.7123889804 4.7123889804 4.7123889804 
4.7123889804 4.7123889804 4.7123889804 4.6087898617 4.4991390697 4.3857031936 4.2712800401 4.1588146215 4.0509635631 
3.94975894 3.8564636551 3.7716124825 4.8159880991 4.9256388911 5.0390747672 5.1534979207 5.2659633393 5.3738143976 
5.4750190208 5.5683143056 5.6531654782 4.6087898617 4.4991390697 4.3857031936 4.2712800401 4.1588146215 4.0509635631 
3.94975894 3.8564636551 3.7716124825 4.8159880991 4.9256388911 5.0390747672 5.1534979207 5.2659633393 5.3738143976 
5.4750190208 5.5683143056 5.6531654782 1.5707963268 1.5707963268 1.5707963268 1.5707963268 1.5707963268 1.5707963268 
1.5707963268 1.5707963268 1.5707963268 1.6743954455 1.7840462375 1.8974821136 2.0119052671 2.1243706857 2.232221744 
2.3334263672 2.426721652 2.5115728246 1.4671972081 1.3575464161 1.24411054 1.1296873865 1.0172219679 0.90937090954 
0.80816628637 0.71487100155 0.63001982895 1.6743954455 1.7840462375 1.8974821136 2.0119052671 2.1243706857 2.232221744 
2.3334263672 2.426721652 2.5115728246 1.4671972081 1.3575464161 1.24411054 1.1296873865 1.0172219679 0.90937090954 
0.80816628637 0.71487100155 0.63001982895 3.6007720849 3.4966939854 3.3839471039 3.2645756454 3.1415926536 3.0186096618 
2.8992382033 2.7864913217 2.6824132222 5.8240058758 5.9280839753 6.0408308569 6.1602023154 6.2831853072 0.12298299178 
0.2423544503 0.35510133185 0.45917943135 6.0560271438 5.7885595667 5.9702140275 5.5125918794 5.6029703303 5.7885595667 
5.2659633393 5.2659633393 5.2659633393 5.2659633393 5.0674903122 5.0120975802 4.9155579264 4.7123889804 4.1588146215 
4.9155579264 4.8353719722 4.7123889804 4.5092200343 4.1588146215 3.6362183941 4.8004512023 4.7123889804 4.5894059886 
4.4126803806 4.1588146215 3.8218076305 3.4545639333 4.7123889804 4.6243267584 4.5092200343 4.3572876485 4.1588146215 
3.9121860814 3.6362183941 3.368750817 6.0174235957 5.9434319871 5.8263323547 5.8809213739 5.7674481418 5.6279784266 
5.8278025282 5.718968232 5.5891129425 5.4372443565 5.7823484065 5.678536687 5.5575666702 5.4192596322 5.2659633393 
5.743164462 5.6444075337 5.5314983644 5.4046708639 5.2659633393 5.1195510325 5.7091357773 5.6152775188 5.5096229709 
5.3926039573 5.2659633393 5.1329233157 4.9978930058 5.6793730533 5.5901633916 5.4910209005 5.3824597928 5.2659633393 
5.1440684722 5.0201624502 4.8979782167 5.5683143056 5.4750190208 5.4750190208 5.3738143976 5.3738143976 5.3738143976 
5.2659633393 5.2659633393 5.2659633393 5.2659633393 5.1534979207 5.1534979207 5.1534979207 5.1534979207 5.1534979207 
5.0390747672 5.0390747672 5.0390747672 5.0390747672 5.0390747672 5.0390747672 4.9256388911 4.9256388911 4.9256388911 
4.9256388911 4.9256388911 4.9256388911 4.9256388911 4.8159880991 4.8159880991 4.8159880991 4.8159880991 4.8159880991 
4.8159880991 4.8159880991 4.8159880991 4.6087898617 4.6087898617 4.4991390697 4.6087898617 4.4991390697 4.3857031936 
4.6087898617 4.4991390697 4.3857031936 4.2712800401 4.6087898617 4.4991390697 4.3857031936 4.2712800401 4.1588146215 
4.6087898617 4.4991390697 4.3857031936 4.2712800401 4.1588146215 4.0509635631 4.6087898617 4.4991390697 4.3857031936 
4.2712800401 4.1588146215 4.0509635631 3.94975894 4.6087898617 4.4991390697 4.3857031936 4.2712800401 4.1588146215 
4.0509635631 3.94975894 3.8564636551 4.526799744 4.4046155105 4.426884955 4.2807094886 4.2918546451 4.3052269283 
4.1588146215 4.1588146215 4.1588146215 4.1588146215 4.042318168 4.0321740035 4.0201070968 4.0055183285 3.9875336042 
3.9337570603 3.9151549899 3.8932795963 3.8672112905 3.8356650183 3.7967995342 3.8346145692 3.809500442 3.7803704271 
3.7462412737 3.7058097288 3.657329819 3.5984456061 3.7454049075 3.7156421835 3.6816134988 3.6424295543 3.5969754326 
3.5438565869 3.4813459737 3.4073543651 3.5642842451 3.4524645613 3.5233842518 3.3320300872 3.403123212 3.4773852225 
3.20576226 3.2746326772 3.348015857 3.4255060145 3.0774230472 3.1415926536 3.2112816139 3.2864685043 3.3668817272 
2.95115522 3.00855263 3.0719036933 3.1415926536 3.2178377658 3.3005964304 2.8307207459 2.8800620952 2.9351694502 
2.9967168029 3.0653475414 3.1415926536 3.225752376 2.718901062 2.7598010554 2.8058000847 2.8576792927 2.91630358 
2.9825888767 3.0574329311 3.1415926536 3.5642842451 3.5233842518 3.4524645613 3.4773852225 3.403123212 3.3320300872 
3.4255060145 3.348015857 3.2746326772 3.20576226 3.3668817272 3.2864685043 3.2112816139 3.1415926536 3.0774230472 
3.3005964304 3.2178377658 3.1415926536 3.0719036933 3.00855263 2.95115522 3.225752376 3.1415926536 3.0653475414 
2.9967168029 2.9351694502 2.8800620952 2.8307207459 3.1415926536 3.0574329311 2.9825888767 2.91630358 2.8576792927 
2.8058000847 2.7598010554 2.718901062 4.526799744 4.426884955 4.4046155105 4.3052269283 4.2918546451 4.2807094886 
4.1588146215 4.1588146215 4.1588146215 4.1588146215 3.9875336042 4.0055183285 4.0201070968 4.0321740035 4.042318168 
3.7967995342 3.8356650183 3.8672112905 3.8932795963 3.9151549899 3.9337570603 3.5984456061 3.657329819 3.7058097288 
3.7462412737 3.7803704271 3.809500442 3.8346145692 3.4073543651 3.4813459737 3.5438565869 3.5969754326 3.6424295543 
3.6816134988 3.7156421835 3.7454049075 4.7123889804 4.8004512023 4.6243267584 4.9155579264 4.7123889804 4.5092200343 
5.0674903122 4.8353719722 4.5894059886 4.3572876485 5.2659633393 5.0120975802 4.7123889804 4.4126803806 4.1588146215 
5.5125918794 5.2659633393 4.9155579264 4.5092200343 4.1588146215 3.9121860814 5.7885595667 5.6029703303 5.2659633393 
4.7123889804 4.1588146215 3.8218076305 3.6362183941 6.0560271438 5.9702140275 5.7885595667 5.2659633393 4.1588146215 
3.6362183941 3.4545639333 3.368750817 0.22715816343 0.49462574053 0.3129712797 0.77059342779 0.68021497688 0.49462574053 
1.0172219679 1.0172219679 1.0172219679 1.0172219679 1.2156949949 1.271087727 1.3676273807 1.5707963268 2.1243706857 
1.3676273807 1.447813335 1.5707963268 1.7739652728 2.1243706857 2.6469669131 1.4827341049 1.5707963268 1.6937793186 
1.8705049266 2.1243706857 2.4613776767 2.8286213739 1.5707963268 1.6588585487 1.7739652728 1.9258976586 2.1243706857 
2.3709992258 2.6469669131 2.9144344902 1.7563855631 1.8785697967 1.8563003522 2.0024758186 1.9913306621 1.9779583789 
2.1243706857 2.1243706857 2.1243706857 2.1243706857 2.2408671392 2.2510113037 2.2630782103 2.2776669786 2.295651703 
2.3494282469 2.3680303173 2.3899057108 2.4159740166 2.4475202889 2.486385773 2.448570738 2.4736848652 2.5028148801 
2.5369440334 2.5773755784 2.6258554882 2.6847397011 2.5377803997 2.5675431237 2.6015718084 2.6407557529 2.6862098746 
2.7393287203 2.8018393335 2.8758309421 1.6743954455 1.6743954455 1.7840462375 1.6743954455 1.7840462375 1.8974821136 
1.6743954455 1.7840462375 1.8974821136 2.0119052671 1.6743954455 1.7840462375 1.8974821136 2.0119052671 2.1243706857 
1.6743954455 1.7840462375 1.8974821136 2.0119052671 2.1243706857 2.232221744 1.6743954455 1.7840462375 1.8974821136 
2.0119052671 2.1243706857 2.232221744 2.3334263672 1.6743954455 1.7840462375 1.8974821136 2.0119052671 2.1243706857 
2.232221744 2.3334263672 2.426721652 1.4671972081 1.3575464161 1.4671972081 1.24411054 1.3575464161 1.4671972081 
1.1296873865 1.24411054 1.3575464161 1.4671972081 1.0172219679 1.1296873865 1.24411054 1.3575464161 1.4671972081 
0.90937090954 1.0172219679 1.1296873865 1.24411054 1.3575464161 1.4671972081 0.80816628637 0.90937090954 1.0172219679 
1.1296873865 1.24411054 1.3575464161 1.4671972081 0.71487100155 0.80816628637 0.90937090954 1.0172219679 1.1296873865 
1.24411054 1.3575464161 1.4671972081 0.60381225391 0.57404952988 0.69302191562 0.54002084522 0.66790778838 0.79216440667 
0.50083690068 0.63877777351 0.77356233629 0.90072551443 0.45538277901 0.60464862014 0.75168694275 0.89058134991 1.0172219679 
0.40226393329 0.56421707518 0.72561863695 0.87851444325 1.0172219679 1.139116835 0.33975332011 0.51573716537 0.69407236469 
0.86392567495 1.0172219679 1.1502619915 1.2630228569 0.26576171152 0.45685295248 0.6552068806 0.84594095064 1.0172219679 
1.1636342747 1.2852923014 1.3852070904 0.22715816343 0.3129712797 0.49462574053 0.49462574053 0.68021497688 0.77059342779 
1.0172219679 1.0172219679 1.0172219679 1.0172219679 2.1243706857 1.5707963268 1.3676273807 1.271087727 1.2156949949 
2.6469669131 2.1243706857 1.7739652728 1.5707963268 1.447813335 1.3676273807 2.8286213739 2.4613776767 2.1243706857 
1.8705049266 1.6937793186 1.5707963268 1.4827341049 2.9144344902 2.6469669131 2.3709992258 2.1243706857 1.9258976586 
1.7739652728 1.6588585487 1.5707963268 1.7563855631 1.8563003522 1.8785697967 1.9779583789 1.9913306621 2.0024758186 
2.1243706857 2.1243706857 2.1243706857 2.1243706857 2.295651703 2.2776669786 2.2630782103 2.2510113037 2.2408671392 
2.486385773 2.4475202889 2.4159740166 2.3899057108 2.3680303173 2.3494282469 2.6847397011 2.6258554882 2.5773755784 
2.5369440334 2.5028148801 2.4736848652 2.448570738 2.8758309421 2.8018393335 2.7393287203 2.6862098746 2.6407557529 
2.6015718084 2.5675431237 2.5377803997 5.8604937156 5.901393709 5.9723133995 5.9473927383 6.0216547488 6.0927478736 
5.9992719463 6.0767621038 6.1501452836 6.2190157008 6.0578962336 6.1383094565 6.2134963469 0 0.064169606361 
6.1241815303 6.206940195 6.2831853072 0.069688960264 0.13304002361 0.19043743361 6.1990255847 0 0.07624511221 
0.14487585072 0.20642320337 0.26153055843 0.3108719077 0 0.084159722458 0.15900377685 0.22528907359 0.28391336087 
0.3357925689 0.38179159818 0.42269159155 5.8604937156 5.9723133995 5.901393709 6.0927478736 6.0216547488 5.9473927383 
6.2190157008 6.1501452836 6.0767621038 5.9992719463 0.064169606361 0 6.2134963469 6.1383094565 6.0578962336 
0.19043743361 0.13304002361 0.069688960264 6.2831853072 6.206940195 6.1241815303 0.3108719077 0.26153055843 0.20642320337 
0.14487585072 0.07624511221 6.2831853072 6.1990255847 0.42269159155 0.38179159818 0.3357925689 0.28391336087 0.22528907359 
0.15900377685 0.084159722458 0 5.6793730533 5.7091357773 5.5901633916 5.743164462 5.6152775188 5.4910209005 
5.7823484065 5.6444075337 5.5096229709 5.3824597928 5.8278025282 5.678536687 5.5314983644 5.3926039573 5.2659633393 
5.8809213739 5.718968232 5.5575666702 5.4046708639 5.2659633393 5.1440684722 5.9434319871 5.7674481418 5.5891129425 
5.4192596322 5.2659633393 5.1329233157 5.0201624502 6.0174235957 5.8263323547 5.6279784266 5.4372443565 5.2659633393 
5.1195510325 4.9978930058 4.8979782167 1.3852070904 1.2852923014 1.2630228569 1.1636342747 1.1502619915 1.139116835 
1.0172219679 1.0172219679 1.0172219679 1.0172219679 0.84594095064 0.86392567495 0.87851444325 0.89058134991 0.90072551443 
0.6552068806 0.69407236469 0.72561863695 0.75168694275 0.77356233629 0.79216440667 0.45685295248 0.51573716537 0.56421707518 
0.60464862014 0.63877777351 0.66790778838 0.69302191562 0.26576171152 0.33975332011 0.40226393329 0.45538277901 0.50083690068 
0.54002084522 0.57404952988 0.60381225391 
_paraPhiHalf 1 1002 double
0 3.1415926536 0 3.1415926536 1.5707963268 1.5707963268 1.5707963268 1.5707963268 2.5880182947 
0.5535743589 2.5880182947 0.5535743589 0 0 0 0 3.1415926536 3.1415926536 
3.1415926536 3.1415926536 3.1415926536 0.17788134 0.38438696014 0.60631181711 0.82323535693 1.0172219679 1.1799687454 
1.3118704726 1.4175000338 1.5022335207 0.17788134 0.38438696014 0.60631181711 0.82323535693 1.0172219679 1.1799687454 
1.3118704726 1.4175000338 1.5022335207 0.093902416448 0.17615329733 0.2478725152 0.31035131605 0.36486382811 0.41257334776 
0.45449736604 0.4915044461 0.52432611754 0.093902416448 0.17615329733 0.2478725152 0.31035131605 0.36486382811 0.41257334776 
0.45449736604 0.4915044461 0.52432611754 2.9637113136 2.7572056934 2.5352808365 2.3183572967 2.1243706857 1.9616239082 
1.829722181 1.7240926197 1.6393591329 2.9637113136 2.7572056934 2.5352808365 2.3183572967 2.1243706857 1.9616239082 
1.829722181 1.7240926197 1.6393591329 3.0476902371 2.9654393563 2.8937201384 2.8312413375 2.7767288255 2.7290193058 
2.6870952876 2.6500882075 2.617266536 3.0476902371 2.9654393563 2.8937201384 2.8312413375 2.7767288255 2.7290193058 
2.6870952876 2.6500882075 2.617266536 0 0 0 0 3.1415926536 3.1415926536 
3.1415926536 3.1415926536 3.1415926536 0.17788134 0.38438696014 0.60631181711 0.82323535693 1.0172219679 1.1799687454 
1.3118704726 1.4175000338 1.5022335207 0.17788134 0.38438696014 0.60631181711 0.82323535693 1.0172219679 1.1799687454 
1.3118704726 1.4175000338 1.5022335207 0.093902416448 0.17615329733 0.2478725152 0.31035131605 0.36486382811 0.41257334776 
0.45449736604 0.4915044461 0.52432611754 0.093902416448 0.17615329733 0.2478725152 0.31035131605 0.36486382811 0.41257334776 
0.45449736604 0.4915044461 0.52432611754 2.9637113136 2.7572056934 2.5352808365 2.3183572967 2.1243706857 1.9616239082 
1.829722181 1.7240926197 1.6393591329 2.9637113136 2.7572056934 2.5352808365 2.3183572967 2.1243706857 1.9616239082 
1.829722181 1.7240926197 1.6393591329 3.0476902371 2.9654393563 2.8937201384 2.8312413375 2.7767288255 2.7290193058 
2.6870952876 2.6500882075 2.617266536 3.0476902371 2.9654393563 2.8937201384 2.8312413375 2.7767288255 2.7290193058 
2.6870952876 2.6500882075 2.617266536 1.5707963268 1.5707963268 1.5707963268 1.5707963268 1.5707963268 1.5707963268 
1.5707963268 1.5707963268 1.5707963268 1.6743954455 1.7840462375 1.8974821136 2.0119052671 2.1243706857 2.232221744 
2.3334263672 2.426721652 2.5115728246 1.4671972081 1.3575464161 1.24411054 1.1296873865 1.0172219679 0.90937090954 
0.80816628637 0.71487100155 0.63001982895 1.6743954455 1.7840462375 1.8974821136 2.0119052671 2.1243706857 2.232221744 
2.3334263672 2.426721652 2.5115728246 1.4671972081 1.3575464161 1.24411054 1.1296873865 1.0172219679 0.90937090954 
0.80816628637 0.71487100155 0.63001982895 1.5707963268 1.5707963268 1.5707963268 1.5707963268 1.5707963268 1.5707963268 
1.5707963268 1.5707963268 1.5707963268 1.6743954455 1.7840462375 1.8974821136 2.0119052671 2.1243706857 2.232221744 
2.3334263672 2.426721652 2.5115728246 1.4671972081 1.3575464161 1.24411054 1.1296873865 1.0172219679 0.90937090954 
0.80816628637 0.71487100155 0.63001982895 1.6743954455 1.7840462375 1.8974821136 2.0119052671 2.1243706857 2.232221744 
2.3334263672 2.426721652 2.5115728246 1.4671972081 1.3575464161 1.24411054 1.1296873865 1.0172219679 0.90937090954 
0.80816628637 0.71487100155 0.63001982895 2.6824132222 2.7864913217 2.8992382033 3.0186096618 3.1415926536 3.0186096618 
2.8992382033 2.7864913217 2.6824132222 0.45917943135 0.35510133185 0.2423544503 0.12298299178 0 0.12298299178 
0.2423544503 0.35510133185 0.45917943135 0.22715816343 0.49462574053 0.3129712797 0.77059342779 0.68021497688 0.49462574053 
1.0172219679 1.0172219679 1.0172219679 1.0172219679 1.2156949949 1.271087727 1.3676273807 1.5707963268 2.1243706857 
1.3676273807 1.447813335 1.5707963268 1.7739652728 2.1243706857 2.6469669131 1.4827341049 1.5707963268 1.6937793186 
1.8705049266 2.1243706857 2.4613776767 2.8286213739 1.5707963268 1.6588585487 1.7739652728 1.9258976586 2.1243706857 
2.3709992258 2.6469669131 2.9144344902 0.26576171152 0.33975332011 0.45685295248 0.40226393329 0.51573716537 0.6552068806 
0.45538277901 0.56421707518 0.69407236469 0.84594095064 0.50083690068 0.60464862014 0.72561863695 0.86392567495 1.0172219679 
0.54002084522 0.63877777351 0.75168694275 0.87851444325 1.0172219679 1.1636342747 0.57404952988 0.66790778838 0.77356233629 
0.89058134991 1.0172219679 1.1502619915 1.2852923014 0.60381225391 0.69302191562 0.79216440667 0.90072551443 1.0172219679 
1.139116835 1.2630228569 1.3852070904 0.71487100155 0.80816628637 0.80816628637 0.90937090954 0.90937090954 0.90937090954 
1.0172219679 1.0172219679 1.0172219679 1.0172219679 1.1296873865 1.1296873865 1.1296873865 1.1296873865 1.1296873865 
1.24411054 1.24411054 1.24411054 1.24411054 1.24411054 1.24411054 1.3575464161 1.3575464161 1.3575464161 
1.3575464161 1.3575464161 1.3575464161 1.3575464161 1.4671972081 1.4671972081 1.4671972081 1.4671972081 1.4671972081 
1.4671972081 1.4671972081 1.4671972081 1.6743954455 1.6743954455 1.7840462375 1.6743954455 1.7840462375 1.8974821136 
1.6743954455 1.7840462375 1.8974821136 2.0119052671 1.6743954455 1.7840462375 1.8974821136 2.0119052671 2.1243706857 
1.6743954455 1.7840462375 1.8974821136 2.0119052671 2.1243706857 2.232221744 1.6743954455 1.7840462375 1.8974821136 
2.0119052671 2.1243706857 2.232221744 2.3334263672 1.6743954455 1.7840462375 1.8974821136 2.0119052671 2.1243706857 
2.232221744 2.3334263672 2.426721652 1.7563855631 1.8785697967 1.8563003522 2.0024758186 1.9913306621 1.9779583789 
2.1243706857 2.1243706857 2.1243706857 2.1243706857 2.2408671392 2.2510113037 2.2630782103 2.2776669786 2.295651703 
2.3494282469 2.3680303173 2.3899057108 2.4159740166 2.4475202889 2.486385773 2.448570738 2.4736848652 2.5028148801 
2.5369440334 2.5773755784 2.6258554882 2.6847397011 2.5377803997 2.5675431237 2.6015718084 2.6407557529 2.6862098746 
2.7393287203 2.8018393335 2.8758309421 2.718901062 2.8307207459 2.7598010554 2.95115522 2.8800620952 2.8058000847 
3.0774230472 3.00855263 2.9351694502 2.8576792927 3.0774230472 3.1415926536 3.0719036933 2.9967168029 2.91630358 
2.95115522 3.00855263 3.0719036933 3.1415926536 3.0653475414 2.9825888767 2.8307207459 2.8800620952 2.9351694502 
2.9967168029 3.0653475414 3.1415926536 3.0574329311 2.718901062 2.7598010554 2.8058000847 2.8576792927 2.91630358 
2.9825888767 3.0574329311 3.1415926536 2.718901062 2.7598010554 2.8307207459 2.8058000847 2.8800620952 2.95115522 
2.8576792927 2.9351694502 3.00855263 3.0774230472 2.91630358 2.9967168029 3.0719036933 3.1415926536 3.0774230472 
2.9825888767 3.0653475414 3.1415926536 3.0719036933 3.00855263 2.95115522 3.0574329311 3.1415926536 3.0653475414 