# vtk DataFile Version 5.1
vtk output
ASCII
DATASET POLYDATA
POINTS 1002 float
-10.624 0.268645 -1.9767 -23.2741 -15.9906 -1.92756 -8.36496 -2.01254 4.04402 
-22.032 -16.3964 2.7664 -12.5954 -7.46045 -2.23351 -12.8704 -8.34554 1.18989 
-20.339 -4.02863 0.952604 -20.1194 -4.57186 4.94806 -20.8213 -28.4023 -0.281657 
-1.0962 -0.88733 -0.462624 -26.7682 -22.6937 1.02252 -9.94461 5.66966 2.76103 
-11.5084 -0.474745 -1.9395 -12.5885 -1.32042 -1.89502 -13.8411 -2.36408 -1.84049 
-15.2585 -3.7225 -1.67602 -16.9377 -5.41354 -1.44108 -18.822 -7.42251 -1.39063 
-20.5194 -9.71036 -1.57366 -21.7464 -12.0531 -1.78074 -22.6039 -14.173 -1.89282 
-10.3936 -0.284201 -2.20917 -10.2215 -0.908048 -2.47136 -10.0981 -1.55415 -2.80133 
-10.0689 -2.26485 -3.13345 -10.2395 -3.17688 -3.32481 -10.5648 -4.29804 -3.34528 
-10.8653 -5.40069 -3.26015 -11.1814 -6.27092 -3.05225 -11.7385 -6.9113 -2.68492 
-11.4496 0.291505 -1.71086 -12.4295 0.182706 -1.42199 -13.5019 -0.0541479 -1.10939 
-14.5663 -0.387567 -0.720577 -15.614 -0.858965 -0.302652 -16.6967 -1.45014 0.0157602 
-17.7633 -2.059 0.271196 -18.7198 -2.68612 0.543563 -19.566 -3.36082 0.784021 
-9.63044 0.667809 -2.13136 -8.50778 1.07527 -2.25409 -7.20711 1.40388 -2.31567 
-5.81973 1.52041 -2.26371 -4.5352 1.41653 -2.07813 -3.45561 1.17842 -1.83121 
-2.56393 0.804169 -1.57567 -1.84624 0.278541 -1.27096 -1.34349 -0.315491 -0.888909 
-10.3145 1.03324 -1.79903 -10.0333 1.81387 -1.52038 -9.74596 2.57659 -1.18576 
-9.49366 3.30258 -0.807034 -9.3594 4.00088 -0.324229 -9.33118 4.65093 0.191101 
-9.39841 5.15863 0.67469 -9.58444 5.48439 1.27205 -9.8029 5.65663 2.02706 
-22.7317 -15.7909 -2.02459 -22.1371 -15.4296 -2.13149 -21.5147 -14.8277 -2.27567 
-20.8042 -13.96 -2.32441 -19.915 -12.798 -2.13159 -18.7221 -11.3035 -1.86767 
-17.1503 -9.6877 -1.79926 -15.4151 -8.40309 -1.9122 -13.8581 -7.70177 -2.07117 
-23.3569 -15.0095 -1.78686 -23.3293 -13.8742 -1.59467 -23.1962 -12.5529 -1.37191 
-22.9757 -11.0723 -1.14026 -22.6394 -9.63459 -0.846919 -22.1894 -8.35713 -0.439518 
-21.6834 -7.138 -0.010215 -21.177 -5.95414 0.338605 -20.7213 -4.90526 0.640023 
-23.5388 -17.6608 -1.98299 -23.6923 -19.5314 -1.95768 -23.6438 -21.7117 -1.87115 
-23.3238 -24.0519 -1.86811 -22.7703 -26.0677 -1.94816 -22.1745 -27.475 -1.86061 
-21.7143 -28.3683 -1.52417 -21.3726 -28.8121 -1.1051 -21.0693 -28.7957 -0.69308 
-23.9549 -17.1676 -1.8399 -24.5784 -18.4154 -1.71237 -25.0768 -19.6586 -1.54912 
-25.4798 -20.8029 -1.33405 -25.8549 -21.7609 -1.07546 -26.2054 -22.4451 -0.810688 
-26.5039 -22.8523 -0.509269 -26.7054 -23.0387 -0.085926 -26.7787 -22.9934 0.458274 
-9.40611 -2.69317 4.07211 -10.6114 -3.45431 4.10193 -12.0331 -4.33172 4.1075 
-13.6956 -5.39763 4.04277 -15.5084 -6.7513 3.96977 -17.3439 -8.44102 3.84238 
-19.0408 -10.3936 3.50546 -20.4049 -12.461 3.09529 -21.3751 -14.4962 2.8528 
-8.27623 -2.61482 3.80997 -8.30001 -3.29021 3.54811 -8.43313 -4.00176 3.26249 
-8.67218 -4.73154 2.9545 -9.0944 -5.46501 2.62459 -9.71308 -6.15659 2.28101 
-10.4431 -6.75513 1.93505 -11.2397 -7.27167 1.61339 -12.0688 -7.78484 1.36077 
-9.11264 -1.88422 4.31279 -9.84144 -1.82924 4.65201 -10.6175 -1.82977 4.99592 
-11.7336 -1.8588 5.16766 -13.2374 -1.98645 5.14823 -14.822 -2.33534 5.12721 
-16.3514 -2.90187 5.16293 -17.8314 -3.53717 5.16027 -19.1239 -4.10209 5.08482 
-7.29893 -1.71443 3.83326 -6.26242 -1.43759 3.52581 -5.28758 -1.19838 3.14087 
-4.25631 -0.970375 2.75042 -3.1899 -0.752444 2.36656 -2.27879 -0.635016 1.94426 
-1.54704 -0.64015 1.44395 -1.02256 -0.691986 0.839463 -0.873111 -0.770899 0.169527 
-7.86922 -1.21578 4.13022 -7.45196 -0.277161 4.13712 -7.16411 0.8411 4.10405 
-7.05115 2.04553 4.10073 -7.15002 3.14493 4.03097 -7.4402 4.07424 3.82326 
-7.89087 4.85573 3.6352 -8.51999 5.42113 3.49022 -9.2628 5.68863 3.20709 
-21.5608 -15.8418 2.58833 -20.9692 -15.1356 2.46012 -20.234 -14.2974 2.41591 
-19.3762 -13.3523 2.37363 -18.4401 -12.3005 2.27953 -17.4356 -11.2124 2.15264 
-16.3433 -10.2186 1.96229 -15.178 -9.39467 1.71432 -13.9991 -8.77204 1.46152 
-22.1118 -15.6606 2.96298 -22.1416 -14.6709 3.13406 -22.1114 -13.4317 3.31757 
-22.0163 -12.112 3.57341 -21.8028 -10.8265 3.89149 -21.4627 -9.49809 4.19105 
-21.1068 -8.12164 4.4327 -20.7899 -6.82474 4.64191 -20.4656 -5.65063 4.82469 
-22.255 -18.0063 2.59029 -22.3517 -19.898 2.42857 -22.271 -22.0784 2.37007 
-22.0143 -24.1719 2.31478 -21.715 -25.801 2.03389 -21.4795 -27.0625 1.58817 
-21.2086 -28.074 1.14496 -20.891 -28.6603 0.657949 -20.7351 -28.7326 0.138243 
-22.6073 -17.8834 2.83558 -23.1856 -19.4468 2.83876 -23.8081 -20.9411 2.78338 
-24.436 -22.2092 2.75226 -25.0191 -23.153 2.70176 -25.5918 -23.7008 2.51449 
-26.1381 -23.846 2.21707 -26.5305 -23.6942 1.87388 -26.7151 -23.3154 1.47106 
-12.5116 -7.72792 -2.03155 -12.4406 -7.97427 -1.78852 -12.3542 -8.23268 -1.51824 
-12.2927 -8.48682 -1.20689 -12.2743 -8.63121 -0.818131 -12.266 -8.65679 -0.356989 
-12.3052 -8.65788 0.113866 -12.4497 -8.62262 0.539211 -12.6616 -8.50202 0.896568 
-14.4894 -8.40639 -1.7493 -16.4809 -10.2797 -1.57191 -17.9038 -12.9934 -1.6971 
-18.659 -15.8474 -1.75106 -19.2799 -18.2938 -1.53445 -19.9838 -20.467 -1.21949 
-20.5541 -22.6798 -0.902761 -20.8538 -24.8927 -0.610808 -20.8982 -26.8572 -0.418444 
-10.9058 -7.17142 -2.72415 -9.28136 -6.89552 -3.1509 -7.70147 -6.36048 -3.28012 
-6.31671 -5.6633 -3.0709 -5.16269 -4.90018 -2.66883 -4.05605 -4.04197 -2.21359 
-3.05023 -3.20392 -1.78981 -2.2716 -2.44468 -1.39811 -1.62925 -1.67072 -0.961466 
-14.3904 -9.30932 1.20393 -15.9468 -10.7063 1.10124 -17.2927 -12.6261 0.88684 
-18.296 -14.9642 0.715603 -19.0933 -17.4611 0.671163 -19.7719 -19.9735 0.6312 
-20.231 -22.4703 0.492843 -20.4878 -24.8167 0.279916 -20.6654 -26.8274 0.019471 
-11.2251 -7.71048 0.932494 -9.46779 -7.20628 0.658159 -7.68054 -6.78788 0.531126 
-5.95536 -6.34977 0.547479 -4.38775 -5.79811 0.485208 -3.14325 -5.09064 0.266197 
-2.32847 -4.17758 0.028723 -1.78877 -3.08406 -0.162329 -1.36219 -1.94996 -0.327164 
-20.5798 -3.91952 1.26481 -20.7889 -3.78529 1.62629 -20.9421 -3.65058 2.06045 
-21.0527 -3.54318 2.6069 -21.0977 -3.46745 3.20466 -21.024 -3.45501 3.74025 
-20.8527 -3.5664 4.20469 -20.6449 -3.82554 4.59514 -20.4072 -4.18886 4.84495 
-21.3677 -5.24713 0.877151 -22.515 -6.62428 0.786203 -23.6284 -8.2071 0.709894 
-24.6036 -10.0096 0.64585 -25.5571 -11.8327 0.579434 -26.403 -13.6141 0.532104 
-26.7925 -15.7263 0.55228 -26.7896 -18.2794 0.661577 -26.7547 -20.7606 0.833016 
-19.4979 -2.81456 1.19893 -18.5485 -1.58886 1.46036 -17.502 -0.358541 1.68389 
-16.4653 0.871692 1.83691 -15.3954 2.02998 1.98608 -14.1665 3.0352 2.17748 
-12.9461 3.89399 2.3501 -11.9247 4.64295 2.48532 -10.9751 5.25698 2.62619 
-21.1777 -5.73552 4.66319 -22.2581 -7.1588 4.23706 -23.4095 -8.8991 3.71152 
-24.5886 -10.8126 3.24964 -25.6777 -12.6914 2.96743 -26.4627 -14.5671 2.73037 
-26.7648 -16.6481 2.37485 -26.7531 -18.9151 1.92581 -26.7348 -21.0289 1.46276 
-19.1661 -3.20845 5.09332 -18.0943 -1.75261 5.15668 -16.9463 -0.283401 5.16047 
-15.7122 1.1199 5.10834 -14.4801 2.34696 4.97371 -13.402 3.31047 4.70835 
-12.447 4.09177 4.29724 -11.5434 4.78122 3.81698 -10.7135 5.32404 3.31671 
-20.9201 -29.9388 -0.370628 -21.3043 -31.0909 -0.346314 -22.2441 -31.6475 -0.145141 
-23.5983 -31.5447 0.106574 -24.7124 -30.8158 0.274079 -25.2883 -29.4892 0.409571 
-25.7533 -27.7858 0.574604 -26.3119 -26.0832 0.735615 -26.686 -24.4548 0.879144 
-0.852344 0.248762 -0.204429 -0.99064 1.42463 0.0455424 -1.56439 2.57906 0.270055 
-2.39859 3.64005 0.547977 -3.36072 4.51916 0.898344 -4.49225 5.2033 1.22264 
-5.82236 5.70803 1.54235 -7.27718 5.9672 1.95443 -8.70215 5.93297 2.40181 
-11.3642 -1.07487 -2.18537 -11.2964 -1.72558 -2.48063 -12.5459 -1.9649 -2.15822 
-11.3051 -2.39788 -2.79487 -12.6093 -2.67626 -2.42018 -13.9346 -3.11662 -2.03391 
-11.4257 -3.21162 -3.01498 -12.7473 -3.45366 -2.60387 -14.1773 -3.94979 -2.16455 
-15.5727 -4.63287 -1.74101 -11.6667 -4.2392 -3.06654 -12.9285 -4.36222 -2.65402 
-14.4853 -4.84107 -2.21917 -16.072 -5.62396 -1.80199 -17.5074 -6.51978 -1.49917 
-11.9498 -5.28031 -2.98629 -13.2129 -5.34001 -2.5782 -14.8692 -5.81966 -2.17799 
-16.662 -6.74304 -1.86521 -18.1944 -7.82818 -1.62839 -19.4543 -8.8371 -1.53751 
-12.3153 -6.15034 -2.78712 -13.7173 -6.29611 -2.40464 -15.4877 -6.93576 -2.04286 
-17.362 -8.06907 -1.86736 -18.9052 -9.38992 -1.80167 -20.0425 -10.5484 -1.74659 
-20.9654 -11.4174 -1.75159 -12.9464 -6.91446 -2.45522 -14.4901 -7.29992 -2.15937 
-16.3249 -8.25222 -1.89045 -18.1214 -9.63432 -1.8401 -19.5393 -11.0921 -1.97513 
-20.5344 -12.3374 -2.03712 -21.2959 -13.2374 -1.98639 -21.9835 -13.81 -1.94101 
-9.32719 0.0904537 -2.3906 -8.10574 0.47189 -2.54478 -9.07645 -0.583605 -2.68618 
-6.73489 0.68874 -2.59761 -7.79425 -0.333602 -2.83187 -8.87183 -1.35121 -3.02595 
-5.37695 0.631675 -2.45801 -6.46704 -0.335546 -2.76175 -7.56292 -1.32975 -3.05948 
-8.79103 -2.22408 -3.30536 -4.18347 0.394129 -2.1894 -5.24336 -0.559856 -2.4945 
-6.33794 -1.55471 -2.83844 -7.44966 -2.38692 -3.22391 -8.97208 -3.27632 -3.43337 
-3.18557 0.0259726 -1.94286 -4.14185 -0.882753 -2.25299 -5.28259 -1.90694 -2.59666 
-6.28775 -2.76387 -3.02308 -7.60692 -3.54542 -3.36693 -9.35201 -4.52352 -3.45065 
-2.41529 -0.502673 -1.70158 -3.20847 -1.33285 -2.06585 -4.31854 -2.30276 -2.44061 
-5.39791 -3.24326 -2.87509 -6.48901 -4.01096 -3.26357 -8.05364 -4.86548 -3.45624 
-9.75093 -5.73096 -3.38141 -1.90668 -1.10616 -1.37247 -2.58806 -1.8929 -1.78393 
-3.52731 -2.74541 -2.18208 -4.65273 -3.68146 -2.63155 -5.73634 -4.51814 -3.06636 
-7.02249 -5.29081 -3.36236 -8.63008 -6.07671 -3.40693 -10.2131 -6.61888 -3.1475 
-1.95608 -2.78261 -0.838065 -2.41054 -3.91932 -0.694081 -2.6756 -3.56141 -1.28728 
-3.04073 -5.00103 -0.49949 -3.23279 -4.70945 -1.17774 -3.5669 -4.34642 -1.71018 
-4.02898 -5.91813 -0.195439 -4.00035 -5.85036 -0.979286 -4.23414 -5.55912 -1.62789 
-4.64864 -5.21271 -2.16088 -5.41727 -6.57047 0.0619894 -5.07947 -6.76717 -0.634714 
-5.05202 -6.73085 -1.41717 -5.34111 -6.41709 -2.07746 -5.81226 -6.03071 -2.624 
[...]
POINT_DATA 1002
FIELD FieldData 4
_paraPhi 1 1002 double
6.2831853072 3.1415926536 6.2831853072 3.1415926536 4.7123889804 4.7123889804 1.5707963268 1.5707963268 3.6951670125 
5.7296109483 2.5880182947 0.5535743589 6.2831853072 6.2831853072 6.2831853072 6.2831853072 3.1415926536 3.1415926536 
3.1415926536 3.1415926536 3.1415926536 6.1053039672 5.898798347 5.6768734901 5.4599499503 5.2659633393 5.1032165617 
4.9713148346 4.8656852733 4.7809517865 0.17788134 0.38438696014 0.60631181711 0.82323535693 1.0172219679 1.1799687454 
1.3118704726 1.4175000338 1.5022335207 6.1892828907 6.1070320098 6.035312792 5.9728339911 5.9183214791 5.8706119594 
5.8286879411 5.7916808611 5.7588591896 0.093902416448 0.17615329733 0.2478725152 0.31035131605 0.36486382811 0.41257334776 
0.45449736604 0.4915044461 0.52432611754 3.3194739936 3.5259796137 3.7479044707 3.9648280105 4.1588146215 4.321561399 
4.4534631262 4.5590926874 4.6438261743 2.9637113136 2.7572056934 2.5352808365 2.3183572967 2.1243706857 1.9616239082 
1.829722181 1.7240926197 1.6393591329 3.23549507 3.3177459509 3.3894651688 3.4519439696 3.5064564817 3.5541660013 
3.5960900196 3.6330970997 3.6659187711 3.0476902371 2.9654393563 2.8937201384 2.8312413375 2.7767288255 2.7290193058 
2.6870952876 2.6500882075 2.617266536 6.2831853072 6.2831853072 6.2831853072 6.2831853072 3.1415926536 3.1415926536 
3.1415926536 3.1415926536 3.1415926536 6.1053039672 5.898798347 5.6768734901 5.4599499503 5.2659633393 5.1032165617 
4.9713148346 4.8656852733 4.7809517865 0.17788134 0.38438696014 0.60631181711 0.82323535693 1.0172219679 1.1799687454 
1.3118704726 1.4175000338 1.5022335207 6.1892828907 6.1070320098 6.035312792 5.9728339911 5.9183214791 5.8706119594 
5.8286879411 5.7916808611 5.7588591896 0.093902416448 0.17615329733 0.2478725152 0.31035131605 0.36486382811 0.41257334776 
0.45449736604 0.4915044461 0.52432611754 3.3194739936 3.5259796137 3.7479044707 3.9648280105 4.1588146215 4.321561399 
4.4534631262 4.5590926874 4.6438261743 2.9637113136 2.7572056934 2.5352808365 2.3183572967 2.1243706857 1.9616239082 
1.829722181 1.7240926197 1.6393591329 3.23549507 3.3177459509 3.3894651688 3.4519439696 3.5064564817 3.5541660013 
3.5960900196 3.6330970997 3.6659187711 3.0476902371 2.9654393563 2.8937201384 2.8312413375 2.7767288255 2.7290193058 
2.6870952876 2.6500882075 2.617266536 4.7123889804 4.7123889804 4.7123889804 4.7123889804 4.7123889804 4.7123889804 
4.7123889804 4.7123889804 4.7123889804 4.6087898617 4.4991390697 4.3857031936 4.2712800401 4.1588146215 4.0509635631 
3.94975894 3.8564636551 3.7716124825 4.8159880991 4.9256388911 5.0390747672 5.1534979207 5.2659633393 5.3738143976 
5.4750190208 5.5683143056 5.6531654782 4.6087898617 4.4991390697 4.3857031936 4.2712800401 4.1588146215 4.0509635631 
3.94975894 3.8564636551 3.7716124825 4.8159880991 4.9256388911 5.0390747672 5.1534979207 5.2659633393 5.3738143976 
5.4750190208 5.5683143056 5.6531654782 1.5707963268 1.5707963268 1.5707963268 1.5707963268 1.5707963268 1.5707963268 
1.5707963268 1.5707963268 1.5707963268 1.6743954455 1.7840462375 1.8974821136 2.0119052671 2.1243706857 2.232221744 
2.3334263672 2.426721652 2.5115728246 1.4671972081 1.3575464161 1.24411054 1.1296873865 1.0172219679 0.90937090954 
0.80816628637 0.71487100155 0.63001982895 1.6743954455 1.7840462375 1.8974821136 2.0119052671 2.1243706857 2.232221744 
2.3334263672 2.426721652 2.5115728246 1.4671972081 1.3575464161 1.24411054 1.1296873865 1.0172219679 0.90937090954 
0.80816628637 0.71487100155 0.63001982895 3.6007720849 3.4966939854 3.3839471039 3.2645756454 3.1415926536 3.0186096618 
2.8992382033 2.7864913217 2.6824132222 5.8240058758 5.9280839753 6.0408308569 6.1602023154 6.2831853072 0.12298299178 
0.2423544503 0.35510133185 0.45917943135 6.0560271438 5.7885595667 5.9702140275 5.5125918794 5.6029703303 5.7885595667 
5.2659633393 5.2659633393 5.2659633393 5.2659633393 5.0674903122 5.0120975802 4.9155579264 4.7123889804 4.1588146215 
4.9155579264 4.8353719722 4.7123889804 4.5092200343 4.1588146215 3.6362183941 4.8004512023 4.7123889804 4.5894059886 
4.4126803806 4.1588146215 3.8218076305 3.4545639333 4.7123889804 4.6243267584 4.5092200343 4.3572876485 4.1588146215 
3.9121860814 3.6362183941 3.368750817 6.0174235957 5.9434319871 5.8263323547 5.8809213739 5.7674481418 5.6279784266 
5.8278025282 5.718968232 5.5891129425 5.4372443565 5.7823484065 5.678536687 5.5575666702 5.4192596322 5.2659633393 
5.743164462 5.6444075337 5.5314983644 5.4046708639 5.2659633393 5.1195510325 5.7091357773 5.6152775188 5.5096229709 
5.3926039573 5.2659633393 5.1329233157 4.9978930058 5.6793730533 5.5901633916 5.4910209005 5.3824597928 5.2659633393 
5.1440684722 5.0201624502 4.8979782167 5.5683143056 5.4750190208 5.4750190208 5.3738143976 5.3738143976 5.3738143976 
5.2659633393 5.2659633393 5.2659633393 5.2659633393 5.1534979207 5.1534979207 5.1534979207 5.1534979207 5.1534979207 
5.0390747672 5.0390747672 5.0390747672 5.0390747672 5.0390747672 5.0390747672 4.9256388911 4.9256388911 4.9256388911 
4.9256388911 4.9256388911 4.9256388911 4.9256388911 4.8159880991 4.8159880991 4.8159880991 4.8159880991 4.8159880991 
4.8159880991 4.8159880991 4.8159880991 4.6087898617 4.6087898617 4.4991390697 4.6087898617 4.4991390697 4.3857031936 
4.6087898617 4.4991390697 4.3857031936 4.2712800401 4.6087898617 4.4991390697 4.3857031936 4.2712800401 4.1588146215 
4.6087898617 4.4991390697 4.3857031936 4.2712800401 4.1588146215 4.0509635631 4.6087898617 4.4991390697 4.3857031936 
4.2712800401 4.1588146215 4.0509635631 3.94975894 4.6087898617 4.4991390697 4.3857031936 4.2712800401 4.1588146215 
4.0509635631 3.94975894 3.8564636551 4.526799744 4.4046155105 4.426884955 4.2807094886 4.2918546451 4.3052269283 
4.1588146215 4.1588146215 4.1588146215 4.1588146215 4.042318168 4.0321740035 4.0201070968 4.0055183285 3.9875336042 
3.9337570603 3.9151549899 3.8932795963 3.8672112905 3.8356650183 3.7967995342 3.8346145692 3.809500442 3.7803704271 
3.7462412737 3.7058097288 3.657329819 3.5984456061 3.7454049075 3.7156421835 3.6816134988 3.6424295543 3.5969754326 
3.5438565869 3.4813459737 3.4073543651 3.5642842451 3.4524645613 3.5233842518 3.3320300872 3.403123212 3.4773852225 
3.20576226 3.2746326772 3.348015857 3.4255060145 3.0774230472 3.1415926536 3.2112816139 3.2864685043 3.3668817272 
2.95115522 3.00855263 3.0719036933 3.1415926536 3.2178377658 3.3005964304 2.8307207459 2.8800620952 2.9351694502 
2.9967168029 3.0653475414 3.1415926536 3.225752376 2.718901062 2.7598010554 2.8058000847 2.8576792927 2.91630358 
2.9825888767 3.0574329311 3.1415926536 3.5642842451 3.5233842518 3.4524645613 3.4773852225 3.403123212 3.3320300872 
3.4255060145 3.348015857 3.2746326772 3.20576226 3.3668817272 3.2864685043 3.2112816139 3.1415926536 3.0774230472 
3.3005964304 3.2178377658 3.1415926536 3.0719036933 3.00855263 2.95115522 3.225752376 3.1415926536 3.0653475414 
2.9967168029 2.9351694502 2.8800620952 2.8307207459 3.1415926536 3.0574329311 2.9825888767 2.91630358 2.8576792927 
2.8058000847 2.7598010554 2.718901062 4.526799744 4.426884955 4.4046155105 4.3052269283 4.2918546451 4.2807094886 
4.1588146215 4.1588146215 4.1588146215 4.1588146215 3.9875336042 4.0055183285 4.0201070968 4.0321740035 4.042318168 
3.7967995342 3.8356650183 3.8672112905 3.8932795963 3.9151549899 3.9337570603 3.5984456061 3.657329819 3.7058097288 
3.7462412737 3.7803704271 3.809500442 3.8346145692 3.4073543651 3.4813459737 3.5438565869 3.5969754326 3.6424295543 
3.6816134988 3.7156421835 3.7454049075 4.7123889804 4.8004512023 4.6243267584 4.9155579264 4.7123889804 4.5092200343 
5.0674903122 4.8353719722 4.5894059886 4.3572876485 5.2659633393 5.0120975802 4.7123889804 4.4126803806 4.1588146215 
5.5125918794 5.2659633393 4.9155579264 4.5092200343 4.1588146215 3.9121860814 5.7885595667 5.6029703303 5.2659633393 
4.7123889804 4.1588146215 3.8218076305 3.6362183941 6.0560271438 5.9702140275 5.7885595667 5.2659633393 4.1588146215 
3.6362183941 3.4545639333 3.368750817 0.22715816343 0.49462574053 0.3129712797 0.77059342779 0.68021497688 0.49462574053 
1.0172219679 1.0172219679 1.0172219679 1.0172219679 1.2156949949 1.271087727 1.3676273807 1.5707963268 2.1243706857 
1.3676273807 1.447813335 1.5707963268 1.7739652728 2.1243706857 2.6469669131 1.4827341049 1.5707963268 1.6937793186 
1.8705049266 2.1243706857 2.4613776767 2.8286213739 1.5707963268 1.6588585487 1.7739652728 1.9258976586 2.1243706857 
2.3709992258 2.6469669131 2.9144344902 1.7563855631 1.8785697967 1.8563003522 2.0024758186 1.9913306621 1.9779583789 
2.1243706857 2.1243706857 2.1243706857 2.1243706857 2.2408671392 2.2510113037 2.2630782103 2.2776669786 2.295651703 
2.3494282469 2.3680303173 2.3899057108 2.4159740166 2.4475202889 2.486385773 2.448570738 2.4736848652 2.5028148801 
2.5369440334 2.5773755784 2.6258554882 2.6847397011 2.5377803997 2.5675431237 2.6015718084 2.6407557529 2.6862098746 
2.7393287203 2.8018393335 2.8758309421 1.6743954455 1.6743954455 1.7840462375 1.6743954455 1.7840462375 1.8974821136 
1.6743954455 1.7840462375 1.8974821136 2.0119052671 1.6743954455 1.7840462375 1.8974821136 2.0119052671 2.1243706857 
1.6743954455 1.7840462375 1.8974821136 2.0119052671 2.1243706857 2.232221744 1.6743954455 1.7840462375 1.8974821136 
2.0119052671 2.1243706857 2.232221744 2.3334263672 1.6743954455 1.7840462375 1.8974821136 2.0119052671 2.1243706857 
2.232221744 2.3334263672 2.426721652 1.4671972081 1.3575464161 1.4671972081 1.24411054 1.3575464161 1.4671972081 
1.1296873865 1.24411054 1.3575464161 1.4671972081 1.0172219679 1.1296873865 1.24411054 1.3575464161 1.4671972081 
0.90937090954 1.0172219679 1.1296873865 1.24411054 1.3575464161 1.4671972081 0.80816628637 0.90937090954 1.0172219679 
1.1296873865 1.24411054 1.3575464161 1.4671972081 0.71487100155 0.80816628637 0.90937090954 1.0172219679 1.1296873865 
1.24411054 1.3575464161 1.4671972081 0.60381225391 0.57404952988 0.69302191562 0.54002084522 0.66790778838 0.79216440667 
0.50083690068 0.63877777351 0.77356233629 0.90072551443 0.45538277901 0.60464862014 0.75168694275 0.89058134991 1.0172219679 
0.40226393329 0.56421707518 0.72561863695 0.87851444325 1.0172219679 1.139116835 0.33975332011 0.51573716537 0.69407236469 
0.86392567495 1.0172219679 1.1502619915 1.2630228569 0.26576171152 0.45685295248 0.6552068806 0.84594095064 1.0172219679 
1.1636342747 1.2852923014 1.3852070904 0.22715816343 0.3129712797 0.49462574053 0.49462574053 0.68021497688 0.77059342779 
1.0172219679 1.0172219679 1.0172219679 1.0172219679 2.1243706857 1.5707963268 1.3676273807 1.271087727 1.2156949949 
2.6469669131 2.1243706857 1.7739652728 1.5707963268 1.447813335 1.3676273807 2.8286213739 2.4613776767 2.1243706857 
1.8705049266 1.6937793186 1.5707963268 1.4827341049 2.9144344902 2.6469669131 2.3709992258 2.1243706857 1.9258976586 
1.7739652728 1.6588585487 1.5707963268 1.7563855631 1.8563003522 1.8785697967 1.9779583789 1.9913306621 2.0024758186 
2.1243706857 2.1243706857 2.1243706857 2.1243706857 2.295651703 2.2776669786 2.2630782103 2.2510113037 2.2408671392 
2.486385773 2.4475202889 2.4159740166 2.3899057108 2.3680303173 2.3494282469 2.6847397011 2.6258554882 2.5773755784 
2.5369440334 2.5028148801 2.4736848652 2.448570738 2.8758309421 2.8018393335 2.7393287203 2.6862098746 2.6407557529 
2.6015718084 2.5675431237 2.5377803997 5.8604937156 5.901393709 5.9723133995 5.9473927383 6.0216547488 6.0927478736 
5.9992719463 6.0767621038 6.1501452836 6.2190157008 6.0578962336 6.1383094565 6.2134963469 0 0.064169606361 
6.1241815303 6.206940195 6.2831853072 0.069688960264 0.13304002361 0.19043743361 6.1990255847 0 0.07624511221 
0.14487585072 0.20642320337 0.26153055843 0.3108719077 0 0.084159722458 0.15900377685 0.22528907359 0.28391336087 
0.3357925689 0.38179159818 0.42269159155 5.8604937156 5.9723133995 5.901393709 6.0927478736 6.0216547488 5.9473927383 
6.2190157008 6.1501452836 6.0767621038 5.9992719463 0.064169606361 0 6.2134963469 6.1383094565 6.0578962336 
0.19043743361 0.13304002361 0.069688960264 6.2831853072 6.206940195 6.1241815303 0.3108719077 0.26153055843 0.20642320337 
0.14487585072 0.07624511221 6.2831853072 6.1990255847 0.42269159155 0.38179159818 0.3357925689 0.28391336087 0.22528907359 
0.15900377685 0.084159722458 0 5.6793730533 5.7091357773 5.5901633916 5.743164462 5.6152775188 5.4910209005 
5.7823484065 5.6444075337 5.5096229709 5.3824597928 5.8278025282 5.678536687 5.5314983644 5.3926039573 5.2659633393 
5.8809213739 5.718968232 5.5575666702 5.4046708639 5.2659633393 5.1440684722 5.9434319871 5.7674481418 5.5891129425 
5.4192596322 5.2659633393 5.1329233157 5.0201624502 6.0174235957 5.8263323547 5.6279784266 5.4372443565 5.2659633393 
5.1195510325 4.9978930058 4.8979782167 1.3852070904 1.2852923014 1.2630228569 1.1636342747 1.1502619915 1.139116835 
1.0172219679 1.0172219679 1.0172219679 1.0172219679 0.84594095064 0.86392567495 0.87851444325 0.89058134991 0.90072551443 
0.6552068806 0.69407236469 0.72561863695 0.75168694275 0.77356233629 0.79216440667 0.45685295248 0.51573716537 0.56421707518 
0.60464862014 0.63877777351 0.66790778838 0.69302191562 0.26576171152 0.33975332011 0.40226393329 0.45538277901 0.50083690068 
0.54002084522 0.57404952988 0.60381225391 
_paraPhiHalf 1 1002 double
0 3.1415926536 0 3.1415926536 1.5707963268 1.5707963268 1.5707963268 1.5707963268 2.5880182947 
0.5535743589 2.5880182947 0.5535743589 0 0 0 0 3.1415926536 3.1415926536 
3.1415926536 3.1415926536 3.1415926536 0.17788134 0.38438696014 0.60631181711 0.82323535693 1.0172219679 1.1799687454 
1.3118704726 1.4175000338 1.5022335207 0.17788134 0.38438696014 0.60631181711 0.82323535693 1.0172219679 1.1799687454 
1.3118704726 1.4175000338 1.5022335207 0.093902416448 0.17615329733 0.2478725152 0.31035131605 0.36486382811 0.41257334776 
0.45449736604 0.4915044461 0.52432611754 0.093902416448 0.17615329733 0.2478725152 0.31035131605 0.36486382811 0.41257334776 
0.45449736604 0.4915044461 0.52432611754 2.9637113136 2.7572056934 2.5352808365 2.3183572967 2.1243706857 1.9616239082 
1.829722181 1.7240926197 1.6393591329 2.9637113136 2.7572056934 2.5352808365 2.3183572967 2.1243706857 1.9616239082 
1.829722181 1.7240926197 1.6393591329 3.0476902371 2.9654393563 2.8937201384 2.8312413375 2.7767288255 2.7290193058 
2.6870952876 2.6500882075 2.617266536 3.0476902371 2.9654393563 2.8937201384 2.8312413375 2.7767288255 2.7290193058 
2.6870952876 2.6500882075 2.617266536 0 0 0 0 3.1415926536 3.1415926536 
3.1415926536 3.1415926536 3.1415926536 0.17788134 0.38438696014 0.60631181711 0.82323535693 1.0172219679 1.1799687454 
1.3118704726 1.4175000338 1.5022335207 0.17788134 0.38438696014 0.60631181711 0.82323535693 1.0172219679 1.1799687454 
1.3118704726 1.4175000338 1.5022335207 0.093902416448 0.17615329733 0.2478725152 0.31035131605 0.36486382811 0.41257334776 
0.45449736604 0.4915044461 0.52432611754 0.093902416448 0.17615329733 0.2478725152 0.31035131605 0.36486382811 0.41257334776 
0.45449736604 0.4915044461 0.52432611754 2.9637113136 2.7572056934 2.5352808365 2.3183572967 2.1243706857 1.9616239082 
1.829722181 1.7240926197 1.6393591329 2.9637113136 2.7572056934 2.5352808365 2.3183572967 2.1243706857 1.9616239082 
1.829722181 1.7240926197 1.6393591329 3.0476902371 2.9654393563 2.8937201384 2.8312413375 2.7767288255 2.7290193058 
2.6870952876 2.6500882075 2.617266536 3.0476902371 2.9654393563 2.8937201384 2.8312413375 2.7767288255 2.7290193058 
2.6870952876 2.6500882075 2.617266536 1.5707963268 1.5707963268 1.5707963268 1.5707963268 1.5707963268 1.5707963268 
1.5707963268 1.5707963268 1.5707963268 1.6743954455 1.7840462375 1.8974821136 2.0119052671 2.1243706857 2.232221744 
2.3334263672 2.426721652 2.5115728246 1.4671972081 1.3575464161 1.24411054 1.1296873865 1.0172219679 0.90937090954 
0.80816628637 0.71487100155 0.63001982895 1.6743954455 1.7840462375 1.8974821136 2.0119052671 2.1243706857 2.232221744 
2.3334263672 2.426721652 2.5115728246 1.4671972081 1.3575464161 1.24411054 1.1296873865 1.0172219679 0.90937090954 
0.80816628637 0.71487100155 0.63001982895 1.5707963268 1.5707963268 1.5707963268 1.5707963268 1.5707963268 1.5707963268 
1.5707963268 1.5707963268 1.5707963268 1.6743954455 1.7840462375 1.8974821136 2.0119052671 2.1243706857 2.232221744 
2.3334263672 2.426721652 2.5115728246 1.4671972081 1.3575464161 1.24411054 1.1296873865 1.0172219679 0.90937090954 
0.80816628637 0.71487100155 0.63001982895 1.6743954455 1.7840462375 1.8974821136 2.0119052671 2.1243706857 2.232221744 
2.3334263672 2.426721652 2.5115728246 1.4671972081 1.3575464161 1.24411054 1.1296873865 1.0172219679 0.90937090954 
0.80816628637 0.71487100155 0.63001982895 2.6824132222 2.7864913217 2.8992382033 3.0186096618 3.1415926536 3.0186096618 
2.8992382033 2.7864913217 2.6824132222 0.45917943135 0.35510133185 0.2423544503 0.12298299178 0 0.12298299178 
0.2423544503 0.35510133185 0.45917943135 0.22715816343 0.49462574053 0.3129712797 0.77059342779 0.68021497688 0.49462574053 
1.0172219679 1.0172219679 1.0172219679 1.0172219679 1.2156949949 1.271087727 1.3676273807 1.5707963268 2.1243706857 
1.3676273807 1.447813335 1.5707963268 1.7739652728 2.1243706857 2.6469669131 1.4827341049 1.5707963268 1.6937793186 
1.8705049266 2.1243706857 2.4613776767 2.8286213739 1.5707963268 1.6588585487 1.7739652728 1.9258976586 2.1243706857 
2.3709992258 2.6469669131 2.9144344902 0.26576171152 0.33975332011 0.45685295248 0.40226393329 0.51573716537 0.6552068806 
0.45538277901 0.56421707518 0.69407236469 0.84594095064 0.50083690068 0.60464862014 0.72561863695 0.86392567495 1.0172219679 
0.54002084522 0.63877777351 0.75168694275 0.87851444325 1.0172219679 1.1636342747 0.57404952988 0.66790778838 0.77356233629 
0.89058134991 1.0172219679 1.1502619915 1.2852923014 0.60381225391 0.69302191562 0.79216440667 0.90072551443 1.0172219679 
1.139116835 1.2630228569 1.3852070904 0.71487100155 0.80816628637 0.80816628637 0.90937090954 0.90937090954 0.90937090954 
1.0172219679 1.0172219679 1.0172219679 1.0172219679 1.1296873865 1.1296873865 1.1296873865 1.1296873865 1.1296873865 
1.24411054 1.24411054 1.24411054 1.24411054 1.24411054 1.24411054 1.3575464161 1.3575464161 1.3575464161 
1.3575464161 1.3575464161 1.3575464161 1.3575464161 1.4671972081 1.4671972081 1.4671972081 1.4671972081 1.4671972081 
1.4671972081 1.4671972081 1.4671972081 1.6743954455 1.6743954455 1.7840462375 1.6743954455 1.7840462375 1.8974821136 
1.6743954455 1.7840462375 1.8974821136 2.0119052671 1.6743954455 1.7840462375 1.8974821136 2.0119052671 2.1243706857 
1.6743954455 1.7840462375 1.8974821136 2.0119052671 2.1243706857 2.232221744 1.6743954455 1.7840462375 1.8974821136 
2.0119052671 2.1243706857 2.232221744 2.3334263672 1.6743954455 1.7840462375 1.8974821136 2.0119052671 2.1243706857 
2.232221744 2.3334263672 2.426721652 1.7563855631 1.8785697967 1.8563003522 2.0024758186 1.9913306621 1.9779583789 
2.1243706857 2.1243706857 2.1243706857 2.1243706857 2.2408671392 2.2510113037 2.2630782103 2.2776669786 2.295651703 
2.3494282469 2.3680303173 2.3899057108 2.4159740166 2.4475202889 2.486385773 2.448570738 2.4736848652 2.5028148801 
2.5369440334 2.5773755784 2.6258554882 2.6847397011 2.5377803997 2.5675431237 2.6015718084 2.6407557529 2.6862098746 
2.7393287203 2.8018393335 2.8758309421 2.718901062 2.8307207459 2.7598010554 2.95115522 2.8800620952 2.8058000847 
3.0774230472 3.00855263 2.9351694502 2.8576792927 3.0774230472 3.1415926536 3.0719036933 2.9967168029 2.91630358 
2.95115522 3.00855263 3.0719036933 3.1415926536 3.0653475414 2.9825888767 2.8307207459 2.8800620952 2.9351694502 
2.9967168029 3.0653475414 3.1415926536 3.0574329311 2.718901062 2.7598010554 2.8058000847 2.8576792927 2.91630358 
2.9825888767 3.0574329311 3.1415926536 2.718901062 2.7598010554 2.8307207459 2.8058000847 2.8800620952 2.95115522 
2.8576792927 2.9351694502 3.00855263 3.0774230472 2.91630358 2.9967168029 3.0719036933 3.1415926536 3.0774230472 
2.9825888767 3.0653475414 3.1415926536 3.0719036933 3.00855263 2.95115522 3.0574329311 3.1415926536 3.0653475414 