# vtk DataFile Version 5.1
vtk output
ASCII
DATASET POLYDATA
POINTS 100 float
-3.98096 4.74973 1.2311 -3.98987 4.74167 1.22776 -4.01707 4.71536 1.22183 
-4.06183 4.67122 1.21407 -4.12297 4.60985 1.20561 -4.19891 4.53201 1.19771 
-4.2878 4.43849 1.19159 -4.38765 4.33005 1.1882 -4.49652 4.20735 1.18808 
-4.61268 4.07098 1.19131 -4.73478 3.92144 1.19754 -4.86201 3.75922 1.20607 
-4.99418 3.58488 1.21601 -5.13167 3.3991 1.22644 -5.27545 3.20265 1.23658 
-5.42683 2.99646 1.24584 -5.58733 2.78151 1.25391 -5.75838 2.55879 1.26067 
-5.94117 2.32916 1.26614 -6.13637 2.09335 1.27034 -6.34414 1.85186 1.27322 
-6.56405 1.60501 1.27456 -6.79519 1.35297 1.27396 -7.03635 1.09585 1.27088 
-7.28621 0.833828 1.26473 -7.5436 0.567206 1.25498 -7.80762 0.296479 1.24127 
-8.0778 0.0223276 1.22354 -8.35411 -0.254446 1.202 -8.63689 -0.533027 1.17716 
-8.9267 -0.812725 1.14969 -9.22417 -1.0931 1.12035 -9.52982 -1.37403 1.08981 
-9.84394 -1.65575 1.05856 -10.1665 -1.93878 1.02682 -10.4974 -2.22376 0.994563 
-10.8361 -2.51132 0.961531 -11.1825 -2.80183 0.927368 -11.5366 -3.0953 0.891734 
-11.8987 -3.39129 0.854417 -12.2697 -3.68899 0.815396 -12.651 -3.98739 0.774836 
-13.0444 -4.28558 0.732998 -13.4515 -4.5831 0.690098 -13.8737 -4.88027 0.646115 
-14.3118 -5.17848 0.60062 -14.7656 -5.48036 0.552646 -15.2339 -5.7897 0.500662 
-15.714 -6.11126 0.442662 -16.2021 -6.45037 0.376372 -16.6937 -6.81238 0.299562 
-17.1834 -7.20212 0.210407 -17.6659 -7.62337 0.107849 -18.136 -8.07845 -0.00811613 
-18.5889 -8.56804 -0.136272 -19.0211 -9.09112 -0.274185 -19.4295 -9.64527 -0.418384 
-19.8123 -10.227 -0.564692 -20.1684 -10.8321 -0.708685 -20.4973 -11.4566 -0.846187 
-20.7987 -12.0965 -0.973745 -21.0727 -12.7486 -1.089 -21.3192 -13.4104 -1.19093 
-21.5383 -14.0801 -1.27985 -21.7299 -14.7562 -1.35732 -21.8939 -15.4375 -1.4258 
-22.0305 -16.1228 -1.48829 -22.1401 -16.81 -1.54788 -22.2235 -17.4971 -1.60735 
-22.2817 -18.181 -1.66886 -22.3165 -18.8585 -1.73376 -22.3296 -19.5262 -1.80256 
-22.3233 -20.1808 -1.87501 -22.2999 -20.8195 -1.95029 -22.2617 -21.44 -2.02727 
-22.2111 -22.0409 -2.10471 -22.1505 -22.6215 -2.18151 -22.0824 -23.1815 -2.25683 
-22.0093 -23.721 -2.33013 -21.9338 -24.2402 -2.4011 -21.8586 -24.7391 -2.46962 
-21.7867 -25.2171 -2.53559 -21.7209 -25.6732 -2.59879 -21.6636 -26.1062 -2.65883 
-21.6173 -26.5142 -2.71505 -21.5836 -26.8958 -2.7666 -21.5634 -27.2491 -2.8125 
-21.5568 -27.5733 -2.85176 -21.563 -27.8676 -2.88357 -21.5806 -28.132 -2.90738 
-21.6072 -28.3672 -2.9231 -21.6403 -28.5739 -2.9311 -21.6771 -28.7533 -2.93222 
-21.7148 -28.9068 -2.92775 -21.7508 -29.0352 -2.91932 -21.7829 -29.1394 -2.90871 
-21.8096 -29.2201 -2.89772 -21.8294 -29.2774 -2.88797 -21.8415 -29.3117 -2.88076 
-21.8454 -29.3229 -2.87695 
LINES 2 100
OFFSETS vtktypeint64
0 100 
CONNECTIVITY vtktypeint64
0 1 2 3 4 5 6 7 8 
9 10 11 12 13 14 15 16 17 
18 19 20 21 22 23 24 25 26 
27 28 29 30 31 32 33 34 35 
36 37 38 39 40 41 42 43 44 
45 46 47 48 49 50 51 52 53 
54 55 56 57 58 59 60 61 62 
63 64 65 66 67 68 69 70 71 
72 73 74 75 76 77 78 79 80 
81 82 83 84 85 86 87 88 89 
90 91 92 93 94 95 96 97 98 
99 
POINT_DATA 100
FIELD FieldData 3
_theta 1 100 double
0 0.031733259127 0.063466518254 0.095199777382 0.12693303651 0.15866629564 0.19039955476 0.22213281389 0.25386607302 
0.28559933214 0.31733259127 0.3490658504 0.38079910953 0.41253236865 0.44426562778 0.47599888691 0.50773214603 0.53946540516 
0.57119866429 0.60293192342 0.63466518254 0.66639844167 0.6981317008 0.72986495992 0.76159821905 0.79333147818 0.82506473731 
0.85679799643 0.88853125556 0.92026451469 0.95199777382 0.98373103294 1.0154642921 1.0471975512 1.0789308103 1.1106640695 
1.1423973286 1.1741305877 1.2058638468 1.237597106 1.2693303651 1.3010636242 1.3327968833 1.3645301425 1.3962634016 
1.4279966607 1.4597299198 1.491463179 1.5231964381 1.5549296972 1.5866629564 1.6183962155 1.6501294746 1.6818627337 
1.7135959929 1.745329252 1.7770625111 1.8087957702 1.8405290294 1.8722622885 1.9039955476 1.9357288068 1.9674620659 
1.999195325 2.0309285841 2.0626618433 2.0943951024 2.1261283615 2.1578616206 2.1895948798 2.2213281389 2.253061398 
2.2847946572 2.3165279163 2.3482611754 2.3799944345 2.4117276937 2.4434609528 2.4751942119 2.506927471 2.5386607302 
2.5703939893 2.6021272484 2.6338605076 2.6655937667 2.6973270258 2.7290602849 2.7607935441 2.7925268032 2.8242600623 
2.8559933214 2.8877265806 2.9194598397 2.9511930988 2.982926358 3.0146596171 3.0463928762 3.0781261353 3.1098593945 
3.1415926536 
_radius 1 100 double
1.2654594571e-14 0.2868544124 0.5727173296 0.85659600964 1.1376678583 1.4152873281 1.6889227713 1.9580441878 2.2220034511 
2.4799544761 2.7308456775 2.9734862172 3.2066578314 3.4292319243 3.6402604077 3.8390283588 4.025073287 4.1981818443 
4.3583710773 4.5058545067 4.6409907905 4.7642180974 4.8759880648 4.9767216512 5.0668068436 5.1466424686 5.2167101072 
5.2776398857 5.330235253 5.3754369066 5.4142282179 5.4475025431 5.475919482 5.4997731066 5.5188874104 5.5325501126 
5.5394970954 5.5379612193 5.5257947637 5.5006631213 5.4602936836 5.4027544942 5.3267343492 5.2317965443 5.1185780043 
4.9889028405 4.8457781687 4.6932475718 4.5361004412 4.3794726317 4.2284109492 4.0874873566 3.9605244215 3.8504435577 
3.7592032636 3.6877833617 3.636199566 3.6035770185 3.588325756 3.5884183929 3.6017021347 3.6261447411 3.6599425272 
3.7014833578 3.7492184299 3.8015244436 3.8566245024 3.9125958495 3.9674513312 4.0192586338 4.0662596471 4.1069637531 
4.140203147 4.1651470118 4.1812726067 4.1882914741 4.1860343777 4.1743074384 4.1527386968 4.1206374021 4.0768891129 
4.0199087313 3.9476708329 3.8578314252 3.747944664 3.6157594925 3.4595577445 3.2784760587 3.072747942 2.843812385 
2.5942580867 2.3276013999 2.0479259369 1.7594379782 1.4660100667 1.1707905392 0.87594558769 0.58257360856 0.290796428 
4.6300587768e-14 
_area 1 100 double
0 0.24171515999 0.96261254433 2.1500221257 3.7831875147 5.8340864349 8.2687688709 11.048829624 14.132469541 
17.475070959 21.029909997 24.74968558 28.588787957 32.505450236 36.462875373 40.429015612 44.375296257 48.274852112 
52.10085053 55.825305738 59.418373792 62.847728725 66.077985126 69.071267485 71.790588983 74.206455431 76.304710086 
78.092151314 79.597182186 80.865065316 81.949571411 82.903614006 83.770661448 84.577196337 85.325714609 85.988782352 
86.506822995 86.793074193 86.746768778 86.271449071 85.292507849 83.76845259 81.693793573 79.095892045 76.030586495 
72.579857969 68.850455253 64.969440723 61.073942166 57.296481221 53.750057191 50.517546394 47.650426579 45.178844129 
43.124556178 41.504845242 40.325340419 39.569349616 39.194224964 39.138964067 39.337441894 39.729975329 40.270427265 
40.928765568 41.688495801 42.538401178 43.460664409 44.420332181 45.361314601 46.211673278 46.897365086 47.360557074 
47.576646161 47.562182763 47.366646538 47.048888469 46.649765111 46.175359334 45.596886501 44.863004123 43.916456375 
42.707692014 41.200440098 39.369360369 37.195542247 34.667085783 31.787766117 28.589877988 25.143035059 21.552371636 
17.945761805 14.455447344 11.201096599 8.2788611465 5.7572596565 3.6783400985 2.0621718785 0.91325202954 0.22770725006 
1.7242944863e-13 
