# vtk DataFile Version 5.1
vtk output
ASCII
DATASET POLYDATA
POINTS 1002 float
-10.2362 0.69054 -2.50638 -25.2386 -14.6715 -5.0261 -9.64557 -2.55444 4.11432 
-24.2785 -15.1752 -0.0479029 -13.8551 -6.95833 -2.54987 -13.6766 -8.23433 0.665431 
-21.4312 -2.63504 -0.662749 -22.0125 -3.77668 3.3386 -21.567 -27.9367 -6.12317 
-0.604305 -1.43324 -0.233748 -29.2798 -20.0685 -3.51948 -9.93361 5.91136 2.28404 
-11.3108 -0.00938056 -2.56391 -12.5992 -0.896608 -2.5507 -14.0938 -1.98264 -2.45713 
-15.9176 -3.23862 -2.41996 -18.1785 -4.80726 -2.54947 -20.5495 -6.80313 -2.87412 
-22.4762 -8.97717 -3.42929 -23.7841 -11.0386 -4.09633 -24.647 -12.9361 -4.64665 
-9.98158 0.175797 -2.71477 -9.79162 -0.47198 -2.87378 -9.72207 -1.25274 -3.01643 
-9.80186 -2.15547 -3.14007 -9.99292 -3.16911 -3.17109 -10.2671 -4.1889 -3.169 
-10.7361 -5.06532 -3.22816 -11.5483 -5.78203 -3.19364 -12.6584 -6.40176 -2.92352 
-11.1528 0.71428 -2.27683 -12.162 0.659049 -2.00068 -13.2793 0.512645 -1.74991 
-14.5028 0.227309 -1.52063 -15.7781 -0.194083 -1.27141 -17.0778 -0.663971 -1.07336 
-18.3655 -1.14315 -0.974388 -19.5364 -1.65057 -0.887361 -20.5441 -2.16129 -0.767461 
-9.07471 1.02483 -2.5775 -7.86307 1.31449 -2.63397 -6.54506 1.52489 -2.64666 
-5.0746 1.57524 -2.59884 -3.62561 1.39518 -2.50225 -2.4426 1.01855 -2.27741 
-1.55393 0.517292 -1.83728 -0.922586 -0.0912541 -1.27888 -0.601196 -0.770932 -0.736776 
-9.83937 1.40334 -2.31837 -9.49482 2.19688 -2.12163 -9.1863 3.00146 -1.83069 
-8.9577 3.72795 -1.37916 -8.89915 4.3864 -0.89494 -9.01066 5.0129 -0.446872 
-9.20582 5.55809 0.128267 -9.44422 5.90865 0.879613 -9.70618 6.00373 1.64042 
-24.7246 -14.5594 -5.03067 -24.128 -14.2926 -4.96409 -23.4157 -13.838 -4.79975 
-22.6425 -13.1933 -4.52038 -21.901 -12.3133 -4.1035 -20.9652 -11.1033 -3.57168 
-19.5073 -9.63901 -3.04936 -17.6408 -8.27172 -2.68443 -15.6946 -7.35349 -2.53487 
-25.3772 -13.6406 -4.75897 -25.4192 -12.4756 -4.41724 -25.3337 -11.1675 -4.00938 
-25.0713 -9.72505 -3.54807 -24.6046 -8.23897 -3.04234 -24.0042 -6.84876 -2.50284 
-23.3492 -5.61464 -1.9646 -22.6653 -4.50215 -1.47623 -22.0047 -3.49758 -1.05051 
-25.3688 -16.3637 -5.37979 -25.3512 -18.1665 -5.80513 -25.1655 -20.0197 -6.31142 
-24.7864 -21.9259 -6.75019 -24.2353 -23.7988 -7.02718 -23.6176 -25.4246 -7.29276 
-22.969 -26.7004 -7.54902 -22.2897 -27.5933 -7.47239 -21.7568 -28.0083 -6.92138 
-25.8384 -15.7189 -5.21355 -26.4231 -16.7341 -5.42115 -26.9598 -17.6866 -5.59612 
-27.4428 -18.5845 -5.63163 -27.9012 -19.4137 -5.52826 -28.3446 -20.0837 -5.36519 
-28.7415 -20.4991 -5.09749 -29.0459 -20.6246 -4.65016 -29.2233 -20.4643 -4.08786 
-10.7315 -3.16157 4.0841 -12.025 -3.83202 4.01175 -13.6245 -4.5797 3.85498 
-15.5445 -5.4616 3.54213 -17.6146 -6.56269 3.05375 -19.5777 -7.98117 2.42449 
-21.2541 -9.72523 1.72309 -22.5793 -11.6139 1.04097 -23.5681 -13.4521 0.44388 
-9.54394 -3.10248 3.83415 -9.51672 -3.74461 3.57889 -9.59362 -4.47232 3.32888 
-9.78644 -5.19689 3.01144 -10.1349 -5.85117 2.61518 -10.6429 -6.46884 2.20248 
-11.2756 -7.05885 1.80489 -12.0184 -7.5553 1.41085 -12.837 -7.93186 1.02465 
-10.4329 -2.42558 4.391 -11.3469 -2.36867 4.6316 -12.5316 -2.38138 4.78102 
-14.0642 -2.43585 4.8166 -15.7186 -2.51667 4.73305 -17.2591 -2.6363 4.54784 
-18.6906 -2.83153 4.30551 -19.9956 -3.12585 4.01973 -21.0993 -3.46844 3.68695 
-8.52155 -2.31434 3.91574 -7.34469 -2.09645 3.65734 -6.16595 -1.87285 3.35245 
-4.99553 -1.66114 2.98259 -3.87968 -1.51228 2.53369 -2.90295 -1.42311 2.06186 
-2.05029 -1.36317 1.57936 -1.31201 -1.34867 1.01745 -0.801431 -1.38717 0.38275 
-9.08054 -1.8144 4.26659 -8.48639 -0.904274 4.29502 -7.92108 0.202314 4.18271 
-7.5277 1.48374 4.0579 -7.43012 2.80002 3.93149 -7.603 3.91366 3.66155 
-7.98833 4.74064 3.29334 -8.58511 5.35906 2.97229 -9.29469 5.76748 2.66567 
-23.7336 -14.8538 0.00409637 -23.1314 -14.3619 0.0698259 -22.3979 -13.6803 0.169811 
-21.4864 -12.8077 0.339579 -20.476 -11.7815 0.551705 -19.3782 -10.687 0.718309 
-18.0764 -9.66503 0.80406 -16.5899 -8.88333 0.826438 -15.0827 -8.42446 0.781249 
-24.4153 -14.3237 0.205717 -24.4797 -13.3263 0.507788 -24.4483 -12.1891 0.859444 
-24.37 -10.9502 1.28512 -24.2427 -9.66482 1.77185 -23.954 -8.38143 2.23152 
-23.4994 -7.11864 2.60513 -23.0065 -5.89284 2.90709 -22.5208 -4.76331 3.15344 
-24.5017 -16.7958 -0.460094 -24.6197 -18.5978 -0.876885 -24.5944 -20.4514 -1.31673 
-24.3772 -22.2556 -1.82265 -24.0329 -23.9809 -2.44521 -23.6431 -25.5094 -3.1619 
-23.0909 -26.71 -3.90178 -22.3581 -27.5581 -4.66472 -21.7631 -27.9906 -5.44475 
-24.97 -16.3808 -0.339795 -25.6432 -17.5875 -0.596782 -26.2885 -18.6833 -0.84978 
-26.9218 -19.559 -1.17595 -27.5075 -20.1661 -1.55235 -27.9829 -20.5045 -1.91555 
-28.3721 -20.584 -2.30206 -28.7304 -20.479 -2.72875 -29.047 -20.3041 -3.14334 
-13.4363 -7.19543 -2.37306 -12.9553 -7.47834 -2.23955 -12.5856 -7.80605 -2.10426 
-12.4656 -8.11918 -1.83075 -12.5331 -8.35865 -1.41855 -12.6384 -8.52843 -0.965642 
-12.775 -8.60015 -0.494516 -13.0192 -8.52928 -0.038805 -13.3482 -8.37549 0.34544 
-16.2466 -7.89895 -2.30357 -18.4911 -9.67745 -2.54308 -20.1465 -12.3965 -3.23902 
-21.3181 -15.668 -3.94969 -22.108 -18.8497 -4.46194 -22.3312 -21.505 -4.99133 
-22.1485 -23.6317 -5.56139 -21.9013 -25.4345 -5.96636 -21.6783 -26.9246 -6.1437 
-11.432 -6.66382 -2.89176 -9.37583 -6.50812 -3.11801 -7.69931 -6.10624 -3.01067 
-6.13544 -5.49638 -2.69742 -4.72924 -4.86579 -2.34881 -3.58877 -4.16308 -1.95708 
-2.52343 -3.418 -1.54032 -1.52878 -2.75153 -1.13004 -0.856822 -2.11015 -0.692567 
-15.4808 -8.72887 0.361008 -17.4004 -9.82448 -0.0566412 -19.1239 -11.8086 -0.621247 
-20.508 -14.4587 -1.35051 -21.5496 -17.4155 -2.13547 -22.1249 -20.5161 -2.86958 
-22.1847 -23.3619 -3.63557 -21.9464 -25.5152 -4.4873 -21.6785 -26.9818 -5.33696 
-11.7953 -8.01403 0.697863 -9.91633 -7.78204 0.71659 -8.03522 -7.52084 0.821939 
-6.21701 -7.25591 0.960429 -4.70347 -6.75411 0.93158 -3.55315 -5.83532 0.712503 
-2.55232 -4.71147 0.461402 -1.63584 -3.6015 0.230003 -0.953055 -2.50901 -0.0076446 
-21.6597 -2.415 -0.37284 -21.9212 -2.18729 -0.0464563 -22.132 -2.02117 0.393014 
-22.2727 -1.93685 0.981103 -22.393 -1.89324 1.64998 -22.4504 -1.97462 2.27794 
-22.398 -2.31226 2.74432 -22.2959 -2.82687 3.02539 -22.1771 -3.34048 3.2034 
-22.656 -3.68754 -0.836493 -23.992 -4.98318 -1.09596 -25.3828 -6.42239 -1.46714 
-26.6764 -7.86709 -1.87771 -27.7209 -9.52413 -2.28867 -28.5437 -11.8578 -2.76384 
-29.194 -14.7178 -3.22425 -29.5481 -17.2508 -3.48337 -29.5317 -18.9569 -3.53935 
-20.3443 -1.58768 -0.29913 -19.1767 -0.541246 0.120456 -17.9795 0.585658 0.489448 
-16.8019 1.77595 0.746126 -15.6086 2.91198 0.982883 -14.38 3.90407 1.26241 
-13.2072 4.67904 1.55318 -12.1226 5.24532 1.84655 -11.0413 5.66834 2.1139 
-23.2018 -4.69218 2.86329 -24.4132 -5.86885 2.2852 -25.6366 -7.42695 1.60915 
-26.8624 -9.21233 0.891834 -27.9351 -11.0455 0.161931 -28.7108 -13.072 -0.598696 
-29.2075 -15.2918 -1.40289 -29.4442 -17.3075 -2.21022 -29.4369 -18.8689 -2.93029 
-20.9091 -2.63653 3.70269 -19.745 -1.34123 4.05474 -18.5471 0.056564 4.31333 
-17.1541 1.36545 4.35501 -15.546 2.57541 4.20802 -14.06 3.78828 4.01451 
-12.8815 4.7972 3.74805 -11.8507 5.37974 3.3227 -10.8558 5.67925 2.80412 
-21.7475 -28.656 -6.47955 -22.5014 -28.9003 -6.66317 -23.8889 -28.6737 -6.50395 
-25.3365 -28.0738 -6.03185 -26.3363 -27.1259 -5.53632 -27.1453 -25.9118 -5.14553 
-27.9553 -24.5207 -4.72412 -28.5499 -22.9659 -4.2555 -28.9431 -21.4196 -3.84919 
-0.59681 -0.305836 -0.0780031 -0.892375 0.838263 0.0850531 -1.52242 1.90454 0.255293 
-2.43798 2.98559 0.4296 -3.42529 4.07588 0.597197 -4.4818 4.95308 0.807465 
-5.79498 5.56606 1.14023 -7.26072 5.95347 1.56889 -8.65812 6.05392 1.97691 
-11.1901 -0.611704 -2.74428 -11.1415 -1.37056 -2.83436 -12.6302 -1.62103 -2.66306 
-11.2078 -2.21673 -2.93171 -12.7245 -2.44267 -2.71725 -14.3211 -2.7857 -2.54658 
-11.381 -3.09163 -3.04778 -12.9488 -3.23232 -2.83951 -14.6846 -3.62507 -2.6434 
-16.4924 -4.15793 -2.5559 -11.6394 -4.00638 -3.06196 -13.3758 -4.04087 -2.944 
-15.3288 -4.49651 -2.78271 -17.3032 -5.22644 -2.70037 -19.0972 -6.02251 -2.76216 
-12.1392 -4.91295 -3.00712 -14.0919 -5.01316 -2.88691 -16.3291 -5.59617 -2.84822 
-18.3861 -6.53138 -2.8651 -20.1014 -7.48358 -3.00969 -21.4543 -8.30799 -3.23637 
-13.0912 -5.7582 -2.9396 -15.1734 -6.10645 -2.78009 -17.5385 -6.95438 -2.84422 
-19.5527 -8.09031 -3.06167 -21.0233 -9.13858 -3.35025 -22.1596 -9.95527 -3.67243 
-23.0621 -10.5801 -3.93955 -14.3921 -6.56822 -2.77401 -16.4695 -7.21171 -2.72051 
-18.6731 -8.35213 -2.90779 -20.4597 -9.68078 -3.3082 -21.6393 -10.8098 -3.75558 
-22.5466 -11.6287 -4.14094 -23.3646 -12.2277 -4.42778 -24.0605 -12.6585 -4.59172 
-8.72896 0.427575 -2.77017 -7.45258 0.614053 -2.82143 -8.4639 -0.283795 -2.97753 
-6.07728 0.721074 -2.82647 -7.11404 -0.174142 -3.0643 -8.32878 -1.11728 -3.18063 
-4.59466 0.640514 -2.74507 -5.70779 -0.193356 -3.0302 -6.89052 -1.08602 -3.23868 
-8.39303 -2.1287 -3.25468 -3.22677 0.303932 -2.57061 -4.32948 -0.466725 -2.8494 
-5.50105 -1.27437 -3.10329 -6.95164 -2.21119 -3.22553 -8.68847 -3.3029 -3.22439 
-2.15519 -0.190989 -2.24189 -3.16326 -0.949809 -2.56159 -4.32501 -1.74295 -2.83744 
-5.6454 -2.54139 -3.06335 -7.38543 -3.49149 -3.22123 -9.1362 -4.44561 -3.30788 
-1.38971 -0.771468 -1.75272 -2.2904 -1.49147 -2.14773 -3.44148 -2.30285 -2.48482 
-4.64481 -3.09335 -2.79828 -6.18513 -3.86056 -3.09148 -8.0019 -4.71383 -3.35009 
-9.69797 -5.38802 -3.42453 -0.952416 -1.43589 -1.21369 -1.74132 -2.09291 -1.64232 
-2.8422 -2.84031 -2.03167 -3.98338 -3.64953 -2.41451 -5.28349 -4.36531 -2.77602 
-6.92471 -5.07265 -3.12213 -8.64613 -5.73613 -3.36254 -10.4553 -6.11676 -3.2819 
-1.42405 -3.2394 -0.4873 -2.29382 -4.41303 -0.275676 -2.28964 -3.9448 -0.956428 
-3.24703 -5.61628 -0.0527721 -3.18031 -5.20564 -0.81076 -3.2987 -4.67009 -1.43116 
-4.2615 -6.70337 0.205612 -4.08149 -6.41733 -0.649035 -4.13546 -5.93507 -1.36164 
-4.37132 -5.37957 -1.88988 -5.60887 -7.43005 0.405379 -5.23689 -7.39676 -0.417814 
-5.16962 -7.09232 -1.23729 -5.38261 -6.58026 -1.82239 -5.71373 -6.01321 -2.26339 
[...]
POINT_DATA 1002
FIELD FieldData 4
_paraPhi 1 1002 double
6.2831853072 3.1415926536 6.2831853072 3.1415926536 4.7123889804 4.7123889804 1.5707963268 1.5707963268 3.6951670125 
5.7296109483 2.5880182947 0.5535743589 6.2831853072 6.2831853072 6.2831853072 6.2831853072 3.1415926536 3.1415926536 
3.1415926536 3.1415926536 3.1415926536 6.1053039672 5.898798347 5.6768734901 5.4599499503 5.2659633393 5.1032165617 
4.9713148346 4.8656852733 4.7809517865 0.17788134 0.38438696014 0.60631181711 0.82323535693 1.0172219679 1.1799687454 
1.3118704726 1.4175000338 1.5022335207 6.1892828907 6.1070320098 6.035312792 5.9728339911 5.9183214791 5.8706119594 
5.8286879411 5.7916808611 5.7588591896 0.093902416448 0.17615329733 0.2478725152 0.31035131605 0.36486382811 0.41257334776 
0.45449736604 0.4915044461 0.52432611754 3.3194739936 3.5259796137 3.7479044707 3.9648280105 4.1588146215 4.321561399 
4.4534631262 4.5590926874 4.6438261743 2.9637113136 2.7572056934 2.5352808365 2.3183572967 2.1243706857 1.9616239082 
1.829722181 1.7240926197 1.6393591329 3.23549507 3.3177459509 3.3894651688 3.4519439696 3.5064564817 3.5541660013 
3.5960900196 3.6330970997 3.6659187711 3.0476902371 2.9654393563 2.8937201384 2.8312413375 2.7767288255 2.7290193058 
2.6870952876 2.6500882075 2.617266536 6.2831853072 6.2831853072 6.2831853072 6.2831853072 3.1415926536 3.1415926536 
3.1415926536 3.1415926536 3.1415926536 6.1053039672 5.898798347 5.6768734901 5.4599499503 5.2659633393 5.1032165617 
4.9713148346 4.8656852733 4.7809517865 0.17788134 0.38438696014 0.60631181711 0.82323535693 1.0172219679 1.1799687454 
1.3118704726 1.4175000338 1.5022335207 6.1892828907 6.1070320098 6.035312792 5.9728339911 5.9183214791 5.8706119594 
5.8286879411 5.7916808611 5.7588591896 0.093902416448 0.17615329733 0.2478725152 0.31035131605 0.36486382811 0.41257334776 
0.45449736604 0.4915044461 0.52432611754 3.3194739936 3.5259796137 3.7479044707 3.9648280105 4.1588146215 4.321561399 
4.4534631262 4.5590926874 4.6438261743 2.9637113136 2.7572056934 2.5352808365 2.3183572967 2.1243706857 1.9616239082 
1.829722181 1.7240926197 1.6393591329 3.23549507 3.3177459509 3.3894651688 3.4519439696 3.5064564817 3.5541660013 
3.5960900196 3.6330970997 3.6659187711 3.0476902371 2.9654393563 2.8937201384 2.8312413375 2.7767288255 2.7290193058 
2.6870952876 2.6500882075 2.617266536 4.7123889804 4.7123889804 4.7123889804 4.7123889804 4.7123889804 4.7123889804 
4.7123889804 4.7123889804 4.7123889804 4.6087898617 4.4991390697 4.3857031936 4.2712800401 4.1588146215 4.0509635631 
3.94975894 3.8564636551 3.7716124825 4.8159880991 4.9256388911 5.0390747672 5.1534979207 5.2659633393 5.3738143976 
5.4750190208 5.5683143056 5.6531654782 4.6087898617 4.4991390697 4.3857031936 4.2712800401 4.1588146215 4.0509635631 
3.94975894 3.8564636551 3.7716124825 4.8159880991 4.9256388911 5.0390747672 5.1534979207 5.2659633393 5.3738143976 
5.4750190208 5.5683143056 5.6531654782 1.5707963268 1.5707963268 1.5707963268 1.5707963268 1.5707963268 1.5707963268 
1.5707963268 1.5707963268 1.5707963268 1.6743954455 1.7840462375 1.8974821136 2.0119052671 2.1243706857 2.232221744 
2.3334263672 2.426721652 2.5115728246 1.4671972081 1.3575464161 1.24411054 1.1296873865 1.0172219679 0.90937090954 
0.80816628637 0.71487100155 0.63001982895 1.6743954455 1.7840462375 1.8974821136 2.0119052671 2.1243706857 2.232221744 
2.3334263672 2.426721652 2.5115728246 1.4671972081 1.3575464161 1.24411054 1.1296873865 1.0172219679 0.90937090954 
0.80816628637 0.71487100155 0.63001982895 3.6007720849 3.4966939854 3.3839471039 3.2645756454 3.1415926536 3.0186096618 
2.8992382033 2.7864913217 2.6824132222 5.8240058758 5.9280839753 6.0408308569 6.1602023154 6.2831853072 0.12298299178 
0.2423544503 0.35510133185 0.45917943135 6.0560271438 5.7885595667 5.9702140275 5.5125918794 5.6029703303 5.7885595667 
5.2659633393 5.2659633393 5.2659633393 5.2659633393 5.0674903122 5.0120975802 4.9155579264 4.7123889804 4.1588146215 
4.9155579264 4.8353719722 4.7123889804 4.5092200343 4.1588146215 3.6362183941 4.8004512023 4.7123889804 4.5894059886 
4.4126803806 4.1588146215 3.8218076305 3.4545639333 4.7123889804 4.6243267584 4.5092200343 4.3572876485 4.1588146215 
3.9121860814 3.6362183941 3.368750817 6.0174235957 5.9434319871 5.8263323547 5.8809213739 5.7674481418 5.6279784266 
5.8278025282 5.718968232 5.5891129425 5.4372443565 5.7823484065 5.678536687 5.5575666702 5.4192596322 5.2659633393 
5.743164462 5.6444075337 5.5314983644 5.4046708639 5.2659633393 5.1195510325 5.7091357773 5.6152775188 5.5096229709 
5.3926039573 5.2659633393 5.1329233157 4.9978930058 5.6793730533 5.5901633916 5.4910209005 5.3824597928 5.2659633393 
5.1440684722 5.0201624502 4.8979782167 5.5683143056 5.4750190208 5.4750190208 5.3738143976 5.3738143976 5.3738143976 
5.2659633393 5.2659633393 5.2659633393 5.2659633393 5.1534979207 5.1534979207 5.1534979207 5.1534979207 5.1534979207 
5.0390747672 5.0390747672 5.0390747672 5.0390747672 5.0390747672 5.0390747672 4.9256388911 4.9256388911 4.9256388911 
4.9256388911 4.9256388911 4.9256388911 4.9256388911 4.8159880991 4.8159880991 4.8159880991 4.8159880991 4.8159880991 
4.8159880991 4.8159880991 4.8159880991 4.6087898617 4.6087898617 4.4991390697 4.6087898617 4.4991390697 4.3857031936 
4.6087898617 4.4991390697 4.3857031936 4.2712800401 4.6087898617 4.4991390697 4.3857031936 4.2712800401 4.1588146215 
4.6087898617 4.4991390697 4.3857031936 4.2712800401 4.1588146215 4.0509635631 4.6087898617 4.4991390697 4.3857031936 
4.2712800401 4.1588146215 4.0509635631 3.94975894 4.6087898617 4.4991390697 4.3857031936 4.2712800401 4.1588146215 
4.0509635631 3.94975894 3.8564636551 4.526799744 4.4046155105 4.426884955 4.2807094886 4.2918546451 4.3052269283 
4.1588146215 4.1588146215 4.1588146215 4.1588146215 4.042318168 4.0321740035 4.0201070968 4.0055183285 3.9875336042 
3.9337570603 3.9151549899 3.8932795963 3.8672112905 3.8356650183 3.7967995342 3.8346145692 3.809500442 3.7803704271 
3.7462412737 3.7058097288 3.657329819 3.5984456061 3.7454049075 3.7156421835 3.6816134988 3.6424295543 3.5969754326 
3.5438565869 3.4813459737 3.4073543651 3.5642842451 3.4524645613 3.5233842518 3.3320300872 3.403123212 3.4773852225 
3.20576226 3.2746326772 3.348015857 3.4255060145 3.0774230472 3.1415926536 3.2112816139 3.2864685043 3.3668817272 
2.95115522 3.00855263 3.0719036933 3.1415926536 3.2178377658 3.3005964304 2.8307207459 2.8800620952 2.9351694502 
2.9967168029 3.0653475414 3.1415926536 3.225752376 2.718901062 2.7598010554 2.8058000847 2.8576792927 2.91630358 
2.9825888767 3.0574329311 3.1415926536 3.5642842451 3.5233842518 3.4524645613 3.4773852225 3.403123212 3.3320300872 
3.4255060145 3.348015857 3.2746326772 3.20576226 3.3668817272 3.2864685043 3.2112816139 3.1415926536 3.0774230472 
3.3005964304 3.2178377658 3.1415926536 3.0719036933 3.00855263 2.95115522 3.225752376 3.1415926536 3.0653475414 
2.9967168029 2.9351694502 2.8800620952 2.8307207459 3.1415926536 3.0574329311 2.9825888767 2.91630358 2.8576792927 
2.8058000847 2.7598010554 2.718901062 4.526799744 4.426884955 4.4046155105 4.3052269283 4.2918546451 4.2807094886 
4.1588146215 4.1588146215 4.1588146215 4.1588146215 3.9875336042 4.0055183285 4.0201070968 4.0321740035 4.042318168 
3.7967995342 3.8356650183 3.8672112905 3.8932795963 3.9151549899 3.9337570603 3.5984456061 3.657329819 3.7058097288 
3.7462412737 3.7803704271 3.809500442 3.8346145692 3.4073543651 3.4813459737 3.5438565869 3.5969754326 3.6424295543 
3.6816134988 3.7156421835 3.7454049075 4.7123889804 4.8004512023 4.6243267584 4.9155579264 4.7123889804 4.5092200343 
5.0674903122 4.8353719722 4.5894059886 4.3572876485 5.2659633393 5.0120975802 4.7123889804 4.4126803806 4.1588146215 
5.5125918794 5.2659633393 4.9155579264 4.5092200343 4.1588146215 3.9121860814 5.7885595667 5.6029703303 5.2659633393 
4.7123889804 4.1588146215 3.8218076305 3.6362183941 6.0560271438 5.9702140275 5.7885595667 5.2659633393 4.1588146215 
3.6362183941 3.4545639333 3.368750817 0.22715816343 0.49462574053 0.3129712797 0.77059342779 0.68021497688 0.49462574053 
1.0172219679 1.0172219679 1.0172219679 1.0172219679 1.2156949949 1.271087727 1.3676273807 1.5707963268 2.1243706857 
1.3676273807 1.447813335 1.5707963268 1.7739652728 2.1243706857 2.6469669131 1.4827341049 1.5707963268 1.6937793186 
1.8705049266 2.1243706857 2.4613776767 2.8286213739 1.5707963268 1.6588585487 1.7739652728 1.9258976586 2.1243706857 
2.3709992258 2.6469669131 2.9144344902 1.7563855631 1.8785697967 1.8563003522 2.0024758186 1.9913306621 1.9779583789 
2.1243706857 2.1243706857 2.1243706857 2.1243706857 2.2408671392 2.2510113037 2.2630782103 2.2776669786 2.295651703 
2.3494282469 2.3680303173 2.3899057108 2.4159740166 2.4475202889 2.486385773 2.448570738 2.4736848652 2.5028148801 
2.5369440334 2.5773755784 2.6258554882 2.6847397011 2.5377803997 2.5675431237 2.6015718084 2.6407557529 2.6862098746 
2.7393287203 2.8018393335 2.8758309421 1.6743954455 1.6743954455 1.7840462375 1.6743954455 1.7840462375 1.8974821136 
1.6743954455 1.7840462375 1.8974821136 2.0119052671 1.6743954455 1.7840462375 1.8974821136 2.0119052671 2.1243706857 
1.6743954455 1.7840462375 1.8974821136 2.0119052671 2.1243706857 2.232221744 1.6743954455 1.7840462375 1.8974821136 
2.0119052671 2.1243706857 2.232221744 2.3334263672 1.6743954455 1.7840462375 1.8974821136 2.0119052671 2.1243706857 
2.232221744 2.3334263672 2.426721652 1.4671972081 1.3575464161 1.4671972081 1.24411054 1.3575464161 1.4671972081 
1.1296873865 1.24411054 1.3575464161 1.4671972081 1.0172219679 1.1296873865 1.24411054 1.3575464161 1.4671972081 
0.90937090954 1.0172219679 1.1296873865 1.24411054 1.3575464161 1.4671972081 0.80816628637 0.90937090954 1.0172219679 
1.1296873865 1.24411054 1.3575464161 1.4671972081 0.71487100155 0.80816628637 0.90937090954 1.0172219679 1.1296873865 
1.24411054 1.3575464161 1.4671972081 0.60381225391 0.57404952988 0.69302191562 0.54002084522 0.66790778838 0.79216440667 
0.50083690068 0.63877777351 0.77356233629 0.90072551443 0.45538277901 0.60464862014 0.75168694275 0.89058134991 1.0172219679 
0.40226393329 0.56421707518 0.72561863695 0.87851444325 1.0172219679 1.139116835 0.33975332011 0.51573716537 0.69407236469 
0.86392567495 1.0172219679 1.1502619915 1.2630228569 0.26576171152 0.45685295248 0.6552068806 0.84594095064 1.0172219679 
1.1636342747 1.2852923014 1.3852070904 0.22715816343 0.3129712797 0.49462574053 0.49462574053 0.68021497688 0.77059342779 
1.0172219679 1.0172219679 1.0172219679 1.0172219679 2.1243706857 1.5707963268 1.3676273807 1.271087727 1.2156949949 
2.6469669131 2.1243706857 1.7739652728 1.5707963268 1.447813335 1.3676273807 2.8286213739 2.4613776767 2.1243706857 
1.8705049266 1.6937793186 1.5707963268 1.4827341049 2.9144344902 2.6469669131 2.3709992258 2.1243706857 1.9258976586 
1.7739652728 1.6588585487 1.5707963268 1.7563855631 1.8563003522 1.8785697967 1.9779583789 1.9913306621 2.0024758186 
2.1243706857 2.1243706857 2.1243706857 2.1243706857 2.295651703 2.2776669786 2.2630782103 2.2510113037 2.2408671392 
2.486385773 2.4475202889 2.4159740166 2.3899057108 2.3680303173 2.3494282469 2.6847397011 2.6258554882 2.5773755784 
2.5369440334 2.5028148801 2.4736848652 2.448570738 2.8758309421 2.8018393335 2.7393287203 2.6862098746 2.6407557529 
2.6015718084 2.5675431237 2.5377803997 5.8604937156 5.901393709 5.9723133995 5.9473927383 6.0216547488 6.0927478736 
5.9992719463 6.0767621038 6.1501452836 6.2190157008 6.0578962336 6.1383094565 6.2134963469 0 0.064169606361 
6.1241815303 6.206940195 6.2831853072 0.069688960264 0.13304002361 0.19043743361 6.1990255847 0 0.07624511221 
0.14487585072 0.20642320337 0.26153055843 0.3108719077 0 0.084159722458 0.15900377685 0.22528907359 0.28391336087 
0.3357925689 0.38179159818 0.42269159155 5.8604937156 5.9723133995 5.901393709 6.0927478736 6.0216547488 5.9473927383 
6.2190157008 6.1501452836 6.0767621038 5.9992719463 0.064169606361 0 6.2134963469 6.1383094565 6.0578962336 
0.19043743361 0.13304002361 0.069688960264 6.2831853072 6.206940195 6.1241815303 0.3108719077 0.26153055843 0.20642320337 
0.14487585072 0.07624511221 6.2831853072 6.1990255847 0.42269159155 0.38179159818 0.3357925689 0.28391336087 0.22528907359 
0.15900377685 0.084159722458 0 5.6793730533 5.7091357773 5.5901633916 5.743164462 5.6152775188 5.4910209005 
5.7823484065 5.6444075337 5.5096229709 5.3824597928 5.8278025282 5.678536687 5.5314983644 5.3926039573 5.2659633393 
5.8809213739 5.718968232 5.5575666702 5.4046708639 5.2659633393 5.1440684722 5.9434319871 5.7674481418 5.5891129425 
5.4192596322 5.2659633393 5.1329233157 5.0201624502 6.0174235957 5.8263323547 5.6279784266 5.4372443565 5.2659633393 
5.1195510325 4.9978930058 4.8979782167 1.3852070904 1.2852923014 1.2630228569 1.1636342747 1.1502619915 1.139116835 
1.0172219679 1.0172219679 1.0172219679 1.0172219679 0.84594095064 0.86392567495 0.87851444325 0.89058134991 0.90072551443 
0.6552068806 0.69407236469 0.72561863695 0.75168694275 0.77356233629 0.79216440667 0.45685295248 0.51573716537 0.56421707518 
0.60464862014 0.63877777351 0.66790778838 0.69302191562 0.26576171152 0.33975332011 0.40226393329 0.45538277901 0.50083690068 
0.54002084522 0.57404952988 0.60381225391 
_paraPhiHalf 1 1002 double
0 3.1415926536 0 3.1415926536 1.5707963268 1.5707963268 1.5707963268 1.5707963268 2.5880182947 
0.5535743589 2.5880182947 0.5535743589 0 0 0 0 3.1415926536 3.1415926536 
3.1415926536 3.1415926536 3.1415926536 0.17788134 0.38438696014 0.60631181711 0.82323535693 1.0172219679 1.1799687454 
1.3118704726 1.4175000338 1.5022335207 0.17788134 0.38438696014 0.60631181711 0.82323535693 1.0172219679 1.1799687454 
1.3118704726 1.4175000338 1.5022335207 0.093902416448 0.17615329733 0.2478725152 0.31035131605 0.36486382811 0.41257334776 
0.45449736604 0.4915044461 0.52432611754 0.093902416448 0.17615329733 0.2478725152 0.31035131605 0.36486382811 0.41257334776 
0.45449736604 0.4915044461 0.52432611754 2.9637113136 2.7572056934 2.5352808365 2.3183572967 2.1243706857 1.9616239082 
1.829722181 1.7240926197 1.6393591329 2.9637113136 2.7572056934 2.5352808365 2.3183572967 2.1243706857 1.9616239082 
1.829722181 1.7240926197 1.6393591329 3.0476902371 2.9654393563 2.8937201384 2.8312413375 2.7767288255 2.7290193058 
2.6870952876 2.6500882075 2.617266536 3.0476902371 2.9654393563 2.8937201384 2.8312413375 2.7767288255 2.7290193058 
2.6870952876 2.6500882075 2.617266536 0 0 0 0 3.1415926536 3.1415926536 
3.1415926536 3.1415926536 3.1415926536 0.17788134 0.38438696014 0.60631181711 0.82323535693 1.0172219679 1.1799687454 
1.3118704726 1.4175000338 1.5022335207 0.17788134 0.38438696014 0.60631181711 0.82323535693 1.0172219679 1.1799687454 
1.3118704726 1.4175000338 1.5022335207 0.093902416448 0.17615329733 0.2478725152 0.31035131605 0.36486382811 0.41257334776 
0.45449736604 0.4915044461 0.52432611754 0.093902416448 0.17615329733 0.2478725152 0.31035131605 0.36486382811 0.41257334776 
0.45449736604 0.4915044461 0.52432611754 2.9637113136 2.7572056934 2.5352808365 2.3183572967 2.1243706857 1.9616239082 
1.829722181 1.7240926197 1.6393591329 2.9637113136 2.7572056934 2.5352808365 2.3183572967 2.1243706857 1.9616239082 
1.829722181 1.7240926197 1.6393591329 3.0476902371 2.9654393563 2.8937201384 2.8312413375 2.7767288255 2.7290193058 
2.6870952876 2.6500882075 2.617266536 3.0476902371 2.9654393563 2.8937201384 2.8312413375 2.7767288255 2.7290193058 
2.6870952876 2.6500882075 2.617266536 1.5707963268 1.5707963268 1.5707963268 1.5707963268 1.5707963268 1.5707963268 
1.5707963268 1.5707963268 1.5707963268 1.6743954455 1.7840462375 1.8974821136 2.0119052671 2.1243706857 2.232221744 
2.3334263672 2.426721652 2.5115728246 1.4671972081 1.3575464161 1.24411054 1.1296873865 1.0172219679 0.90937090954 
0.80816628637 0.71487100155 0.63001982895 1.6743954455 1.7840462375 1.8974821136 2.0119052671 2.1243706857 2.232221744 
2.3334263672 2.426721652 2.5115728246 1.4671972081 1.3575464161 1.24411054 1.1296873865 1.0172219679 0.90937090954 
0.80816628637 0.71487100155 0.63001982895 1.5707963268 1.5707963268 1.5707963268 1.5707963268 1.5707963268 1.5707963268 
1.5707963268 1.5707963268 1.5707963268 1.6743954455 1.7840462375 1.8974821136 2.0119052671 2.1243706857 2.232221744 
2.3334263672 2.426721652 2.5115728246 1.4671972081 1.3575464161 1.24411054 1.1296873865 1.0172219679 0.90937090954 
0.80816628637 0.71487100155 0.63001982895 1.6743954455 1.7840462375 1.8974821136 2.0119052671 2.1243706857 2.232221744 
2.3334263672 2.426721652 2.5115728246 1.4671972081 1.3575464161 1.24411054 1.1296873865 1.0172219679 0.90937090954 
0.80816628637 0.71487100155 0.63001982895 2.6824132222 2.7864913217 2.8992382033 3.0186096618 3.1415926536 3.0186096618 
2.8992382033 2.7864913217 2.6824132222 0.45917943135 0.35510133185 0.2423544503 0.12298299178 0 0.12298299178 
0.2423544503 0.35510133185 0.45917943135 0.22715816343 0.49462574053 0.3129712797 0.77059342779 0.68021497688 0.49462574053 
1.0172219679 1.0172219679 1.0172219679 1.0172219679 1.2156949949 1.271087727 1.3676273807 1.5707963268 2.1243706857 
1.3676273807 1.447813335 1.5707963268 1.7739652728 2.1243706857 2.6469669131 1.4827341049 1.5707963268 1.6937793186 
1.8705049266 2.1243706857 2.4613776767 2.8286213739 1.5707963268 1.6588585487 1.7739652728 1.9258976586 2.1243706857 
2.3709992258 2.6469669131 2.9144344902 0.26576171152 0.33975332011 0.45685295248 0.40226393329 0.51573716537 0.6552068806 
0.45538277901 0.56421707518 0.69407236469 0.84594095064 0.50083690068 0.60464862014 0.72561863695 0.86392567495 1.0172219679 
0.54002084522 0.63877777351 0.75168694275 0.87851444325 1.0172219679 1.1636342747 0.57404952988 0.66790778838 0.77356233629 
0.89058134991 1.0172219679 1.1502619915 1.2852923014 0.60381225391 0.69302191562 0.79216440667 0.90072551443 1.0172219679 
1.139116835 1.2630228569 1.3852070904 0.71487100155 0.80816628637 0.80816628637 0.90937090954 0.90937090954 0.90937090954 
1.0172219679 1.0172219679 1.0172219679 1.0172219679 1.1296873865 1.1296873865 1.1296873865 1.1296873865 1.1296873865 
1.24411054 1.24411054 1.24411054 1.24411054 1.24411054 1.24411054 1.3575464161 1.3575464161 1.3575464161 
1.3575464161 1.3575464161 1.3575464161 1.3575464161 1.4671972081 1.4671972081 1.4671972081 1.4671972081 1.4671972081 
1.4671972081 1.4671972081 1.4671972081 1.6743954455 1.6743954455 1.7840462375 1.6743954455 1.7840462375 1.8974821136 
1.6743954455 1.7840462375 1.8974821136 2.0119052671 1.6743954455 1.7840462375 1.8974821136 2.0119052671 2.1243706857 
1.6743954455 1.7840462375 1.8974821136 2.0119052671 2.1243706857 2.232221744 1.6743954455 1.7840462375 1.8974821136 
2.0119052671 2.1243706857 2.232221744 2.3334263672 1.6743954455 1.7840462375 1.8974821136 2.0119052671 2.1243706857 
2.232221744 2.3334263672 2.426721652 1.7563855631 1.8785697967 1.8563003522 2.0024758186 1.9913306621 1.9779583789 
2.1243706857 2.1243706857 2.1243706857 2.1243706857 2.2408671392 2.2510113037 2.2630782103 2.2776669786 2.295651703 
2.3494282469 2.3680303173 2.3899057108 2.4159740166 2.4475202889 2.486385773 2.448570738 2.4736848652 2.5028148801 
2.5369440334 2.5773755784 2.6258554882 2.6847397011 2.5377803997 2.5675431237 2.6015718084 2.6407557529 2.6862098746 
2.7393287203 2.8018393335 2.8758309421 2.718901062 2.8307207459 2.7598010554 2.95115522 2.8800620952 2.8058000847 
3.0774230472 3.00855263 2.9351694502 2.8576792927 3.0774230472 3.1415926536 3.0719036933 2.9967168029 2.91630358 
2.95115522 3.00855263 3.0719036933 3.1415926536 3.0653475414 2.9825888767 2.8307207459 2.8800620952 2.9351694502 
2.9967168029 3.0653475414 3.1415926536 3.0574329311 2.718901062 2.7598010554 2.8058000847 2.8576792927 2.91630358 
2.9825888767 3.0574329311 3.1415926536 2.718901062 2.7598010554 2.8307207459 2.8058000847 2.8800620952 2.95115522 
2.8576792927 2.9351694502 3.00855263 3.0774230472 2.91630358 2.9967168029 3.0719036933 3.1415926536 3.0774230472 
2.9825888767 3.0653475414 3.1415926536 3.0719036933 3.00855263 2.95115522 3.0574329311 3.1415926536 3.0653475414 