# vtk DataFile Version 5.1
vtk output
ASCII
DATASET POLYDATA
POINTS 1002 float
-10.7461 -1.04718 -1.03434 -20.9196 -20.2257 -0.533449 -8.03517 -3.29096 5.13224 
-18.9584 -20.0521 4.02432 -11.9095 -9.18586 -1.32536 -11.4204 -10.1202 2.26239 
-19.99 -7.44216 2.35989 -19.8131 -8.16884 6.30915 -14.3505 -32.0928 -0.0420309 
-0.778658 -0.883571 0.0450787 -23.4303 -26.9784 2.40118 -10.6555 4.38351 3.8011 
-11.5935 -1.97549 -0.963452 -12.595 -3.09143 -0.838522 -13.7625 -4.44543 -0.682037 
-15.0758 -6.1404 -0.498211 -16.4991 -8.2136 -0.298464 -17.9625 -10.5788 -0.177958 
-19.2525 -13.1211 -0.222503 -20.1402 -15.6921 -0.363732 -20.6398 -18.1003 -0.476893 
-10.4553 -1.5126 -1.29644 -10.1653 -2.08226 -1.57353 -9.91843 -2.7423 -1.90173 
-9.79521 -3.49739 -2.20354 -9.83491 -4.40396 -2.34217 -9.99984 -5.50451 -2.31469 
-10.2491 -6.65238 -2.19112 -10.6199 -7.6193 -1.97733 -11.1802 -8.40591 -1.67442 
-11.561 -1.21846 -0.713929 -12.5032 -1.50724 -0.361992 -13.5676 -1.91104 0.0140573 
-14.6393 -2.47109 0.427966 -15.6716 -3.20289 0.839901 -16.6959 -4.03523 1.21242 
-17.6436 -4.90597 1.57526 -18.48 -5.79013 1.9081 -19.2652 -6.64654 2.16177 
-9.72624 -0.493352 -1.23441 -8.58796 -0.0127297 -1.41013 -7.3855 0.42442 -1.55638 
-6.11133 0.806276 -1.66628 -4.71032 1.00857 -1.7061 -3.36107 0.960981 -1.6104 
-2.31587 0.715867 -1.32777 -1.55732 0.30434 -0.89268 -1.02331 -0.254344 -0.407877 
-10.4682 -0.263716 -0.844112 -10.2461 0.525362 -0.561977 -10.062 1.31115 -0.246118 
-9.91269 2.05234 0.125084 -9.85833 2.70714 0.639165 -9.93131 3.32077 1.18066 
-10.0959 3.86895 1.66767 -10.3078 4.22501 2.2834 -10.5112 4.37273 3.06274 
-20.5005 -19.8902 -0.638958 -20.0632 -19.3904 -0.763462 -19.5306 -18.6471 -0.861285 
-18.8537 -17.6171 -0.84602 -18.0858 -16.2938 -0.741884 -17.1911 -14.6118 -0.672718 
-16.0092 -12.6706 -0.697627 -14.5849 -10.9264 -0.827833 -13.1684 -9.7718 -1.05745 
-21.1947 -19.2115 -0.382183 -21.3998 -18.0392 -0.169099 -21.491 -16.645 0.0738587 
-21.4823 -15.1324 0.353012 -21.3744 -13.7132 0.734646 -21.1548 -12.331 1.1516 
-20.8734 -10.8592 1.47591 -20.5822 -9.47362 1.74621 -20.2856 -8.35392 2.04504 
-20.8205 -22.1176 -0.641685 -20.6051 -24.1154 -0.810735 -20.1996 -26.1198 -1.04558 
-19.4613 -28.089 -1.19882 -18.3741 -29.9425 -1.20887 -17.1419 -31.4273 -1.23466 
-15.985 -32.3105 -1.26545 -15.0588 -32.5973 -1.06885 -14.5019 -32.4609 -0.603479 
-21.331 -21.6193 -0.501269 -21.7401 -22.9823 -0.476174 -22.0632 -24.2746 -0.42799 
-22.2915 -25.475 -0.283509 -22.4627 -26.4775 0.00721593 -22.6071 -27.121 0.380516 
-22.8155 -27.4019 0.781374 -23.1063 -27.4446 1.2767 -23.3414 -27.3028 1.86188 
-8.97577 -4.23015 5.31376 -10.0721 -5.23505 5.49387 -11.385 -6.309 5.58885 
-12.9162 -7.53832 5.53995 -14.5314 -9.10609 5.38943 -16.0345 -11.138 5.18375 
-17.2275 -13.4743 4.90635 -18.0399 -15.8027 4.57449 -18.5834 -17.9853 4.26051 
-7.91735 -3.93921 4.94915 -7.87353 -4.58773 4.67068 -7.9247 -5.2741 4.33834 
-8.08137 -6.04634 4.02141 -8.3748 -6.84903 3.69749 -8.79938 -7.60868 3.34677 
-9.30938 -8.31513 3.0196 -9.91683 -8.9579 2.73187 -10.6421 -9.54307 2.4746 
-8.73478 -3.23385 5.41277 -9.41883 -3.22293 5.78865 -10.1606 -3.23446 6.17002 
-11.2672 -3.33481 6.33566 -12.8364 -3.69657 6.29494 -14.5114 -4.40228 6.2781 
-16.0369 -5.35803 6.3302 -17.473 -6.40001 6.36889 -18.7857 -7.36845 6.37295 
-7.05297 -2.80596 4.85347 -6.11192 -2.35537 4.47 -5.24358 -1.92281 3.96639 
-4.32442 -1.5404 3.46314 -3.3822 -1.27533 2.9862 -2.57731 -1.09357 2.43596 
-1.85486 -0.928605 1.83113 -1.19059 -0.818219 1.23141 -0.793724 -0.810382 0.628587 
-7.60487 -2.26313 5.11703 -7.26709 -1.14005 5.12796 -7.12057 0.0106904 5.14775 
-7.2118 1.17668 5.08071 -7.47947 2.28135 4.92448 -7.89076 3.21299 4.79233 
-8.5143 3.94706 4.69045 -9.31058 4.42238 4.51409 -10.0736 4.55049 4.20859 
-18.5813 -19.4396 3.89694 -18.1517 -18.6435 3.76736 -17.5755 -17.6642 3.71024 
-16.9251 -16.4956 3.65525 -16.2575 -15.1843 3.53564 -15.4789 -13.8332 3.38696 
-14.5741 -12.5475 3.18279 -13.5919 -11.4548 2.89273 -12.5253 -10.6533 2.57478 
-19.2124 -19.2906 4.21614 -19.527 -18.4454 4.40178 -19.8039 -17.4049 4.63234 
-19.9759 -16.0954 4.90425 -20.0752 -14.7255 5.20157 -20.1313 -13.5222 5.56482 
-20.151 -12.3285 5.93246 -20.1291 -10.9444 6.16537 -20.0206 -9.48903 6.26207 
-18.9481 -21.9275 3.80132 -18.7403 -24.0984 3.6336 -18.2643 -26.3326 3.50929 
-17.5729 -28.3593 3.30386 -16.7723 -30.0185 2.8936 -15.9113 -31.2182 2.37438 
-15.0643 -31.9229 1.84496 -14.4307 -32.2222 1.22683 -14.195 -32.2547 0.542996 
-19.4025 -21.6668 3.95032 -19.8591 -23.3026 3.84576 -20.2627 -24.8629 3.77211 
-20.6435 -26.2372 3.8066 -21.1309 -27.2436 3.84797 -21.6855 -27.747 3.69768 
-22.1664 -27.8166 3.38232 -22.6013 -27.6357 3.06547 -23.0428 -27.3422 2.76093 
-11.677 -9.4663 -1.21484 -11.473 -9.73399 -0.97835 -11.2885 -9.96512 -0.664711 
-11.1051 -10.1611 -0.350966 -10.9392 -10.2972 0.0146423 -10.8605 -10.3468 0.512107 
-10.9076 -10.335 1.0623 -11.0446 -10.291 1.54348 -11.2247 -10.2163 1.933 
-13.5226 -10.6506 -0.84174 -15.0262 -13.0508 -0.525393 -16.0098 -16.0791 -0.406942 
-16.5757 -19.1791 -0.317202 -16.9906 -22.2303 -0.170857 -17.062 -25.2141 -0.111469 
-16.5985 -27.7739 -0.186273 -15.8174 -29.6978 -0.25778 -15.0026 -31.0908 -0.219498 
-10.2353 -8.5138 -1.84976 -8.59243 -8.01425 -2.3548 -7.02778 -7.33727 -2.60659 
-5.64477 -6.43919 -2.42848 -4.49777 -5.43594 -1.98211 -3.44729 -4.42898 -1.60731 
-2.45238 -3.51197 -1.31776 -1.63991 -2.64079 -0.929323 -1.07682 -1.74037 -0.442676 
-12.8874 -11.2206 2.26701 -14.2076 -12.9435 2.21085 -15.1905 -15.3035 2.03699 
-15.9052 -18.1788 1.85152 -16.3967 -21.4602 1.76839 -16.4806 -24.7853 1.60034 
-16.1125 -27.576 1.1967 -15.4965 -29.5959 0.737261 -14.8426 -31.0198 0.345642 
-9.77485 -9.41822 2.0284 -8.1208 -8.79357 1.7318 -6.5886 -8.10963 1.4124 
-5.12213 -7.38703 1.14665 -3.73726 -6.65586 0.976244 -2.64253 -5.78116 0.826064 
-1.8975 -4.66608 0.603508 -1.34505 -3.39058 0.357912 -0.939515 -2.08918 0.178014 
-20.2124 -7.37512 2.70066 -20.391 -7.28814 3.11969 -20.5554 -7.18566 3.59316 
-20.7327 -7.04835 4.08393 -20.8366 -6.90193 4.60938 -20.7815 -6.88475 5.17815 
-20.6212 -7.0925 5.69556 -20.4201 -7.44886 6.05035 -20.1579 -7.82853 6.23278 
-20.8606 -8.84922 2.35437 -21.7407 -10.5694 2.34003 -22.6007 -12.6062 2.29721 
-23.4104 -14.7365 2.19655 -24.0997 -16.876 2.02067 -24.5662 -19.3086 1.83636 
-24.7006 -21.9712 1.80274 -24.4726 -24.2433 1.96974 -23.9946 -25.8247 2.20951 
-19.248 -6.04629 2.54817 -18.4364 -4.49759 2.72014 -17.5581 -2.95613 2.90425 
-16.6331 -1.556 3.11303 -15.6807 -0.160684 3.26607 -14.6572 1.19799 3.34007 
-13.5547 2.25873 3.431 -12.4931 3.06787 3.57504 -11.5478 3.79531 3.71652 
-20.7075 -9.71762 6.07545 -21.444 -11.5028 5.67345 -22.2427 -13.5878 5.21777 
-23.1798 -15.8824 4.81978 -23.9948 -18.2353 4.4637 -24.405 -20.5257 4.07236 
-24.3895 -22.61 3.62673 -24.1283 -24.3762 3.18145 -23.7915 -25.813 2.78011 
-18.9094 -6.4508 6.37926 -17.831 -4.60845 6.36638 -16.7562 -2.7001 6.34399 
-15.7166 -0.910576 6.37334 -14.6773 0.590587 6.31634 -13.729 1.76759 5.99441 
-12.8973 2.67789 5.47956 -12.1042 3.40222 4.94207 -11.3473 3.97246 4.40073 
-14.0094 -33.1868 -0.117273 -14.3633 -34.1422 -0.0644369 -15.653 -34.6386 0.235712 
-17.4323 -34.4366 0.699233 -18.9682 -33.721 1.09255 -20.129 -32.7848 1.37818 
-21.1529 -31.5692 1.67348 -22.0576 -30.0117 1.981 -22.8017 -28.3935 2.23004 
-0.819467 0.296698 0.257455 -1.23344 1.38622 0.489259 -1.99084 2.3791 0.772182 
-2.91562 3.37301 1.0816 -3.95157 4.25684 1.35047 -5.24244 4.7845 1.65702 
-6.78297 4.98572 2.15355 -8.30543 4.99773 2.78504 -9.59924 4.8002 3.36565 
-11.3919 -2.48633 -1.22352 -11.197 -3.08114 -1.50924 -12.4982 -3.6687 -1.09793 
-11.0444 -3.78165 -1.75141 -12.4434 -4.35813 -1.33214 -13.8061 -5.18439 -0.90475 
-10.9986 -4.63458 -1.8654 -12.4375 -5.19316 -1.4332 -13.9435 -6.07738 -1.04779 
-15.2915 -7.13062 -0.640346 -11.092 -5.6732 -1.88863 -12.5101 -6.17833 -1.45956 
-14.1444 -7.07954 -1.09939 -15.6327 -8.24147 -0.737328 -16.8772 -9.45383 -0.400935 
-11.3451 -6.79244 -1.84397 -12.7597 -7.28818 -1.47774 -14.446 -8.21944 -1.13239 
-16.0394 -9.47664 -0.812973 -17.3374 -10.8293 -0.533939 -18.391 -12.0715 -0.340529 
-11.7952 -7.81155 -1.65922 -13.2665 -8.44135 -1.35671 -14.9454 -9.57223 -1.06506 
-16.4981 -11.0089 -0.808703 -17.7537 -12.4867 -0.637484 -18.7543 -13.7983 -0.535544 
-19.5355 -14.8551 -0.453183 -12.4351 -8.75164 -1.35978 -13.9381 -9.63017 -1.08262 
-15.5455 -11.0914 -0.8652 -16.9425 -12.8092 -0.715107 -18.0296 -14.4169 -0.671058 
-18.9199 -15.7582 -0.688337 -19.6359 -16.7839 -0.662432 -20.1831 -17.5334 -0.579903 
-9.32245 -1.02659 -1.50967 -8.10511 -0.604436 -1.68931 -8.96369 -1.68555 -1.8182 
-6.85677 -0.217205 -1.84068 -7.73279 -1.33266 -2.02071 -8.72365 -2.45496 -2.22388 
-5.48818 0.0358811 -1.9453 -6.43398 -1.04389 -2.14809 -7.47758 -2.22524 -2.42644 
-8.64181 -3.32982 -2.58085 -4.03445 0.0158219 -1.92609 -4.99965 -0.990981 -2.17027 
-6.08408 -2.11706 -2.42678 -7.32839 -3.26359 -2.71324 -8.72328 -4.37172 -2.69208 
-2.82754 -0.231749 -1.70479 -3.68344 -1.22362 -2.03 -4.72455 -2.25957 -2.27444 
-5.90022 -3.35501 -2.57353 -7.39391 -4.47775 -2.78098 -8.93867 -5.62419 -2.61387 
-1.99926 -0.61691 -1.31887 -2.74738 -1.60098 -1.71118 -3.72242 -2.59322 -2.00058 
-4.76641 -3.63602 -2.29465 -6.07122 -4.72864 -2.64405 -7.69584 -5.86319 -2.74935 
-9.2295 -6.86583 -2.46506 -1.42092 -1.13509 -0.879911 -2.09802 -2.0725 -1.32086 
-3.02242 -3.00881 -1.65315 -4.03811 -4.01037 -1.94518 -5.13059 -5.07602 -2.35347 
-6.51629 -6.15341 -2.69148 -8.09693 -7.12543 -2.63825 -9.62882 -7.81717 -2.2215 
-1.29342 -3.04661 -0.344876 -1.70597 -4.41282 -0.180609 -1.90809 -3.97622 -0.861378 
-2.29263 -5.69459 0.0609385 -2.34341 -5.36248 -0.718128 -2.79707 -4.86839 -1.25219 
-3.18728 -6.73491 0.326862 -3.01937 -6.62363 -0.459518 -3.312 -6.2654 -1.14126 
-3.89376 -5.8241 -1.60172 -4.48821 -7.53301 0.595287 -4.06838 -7.61899 -0.0962366 
-4.08346 -7.49378 -0.890323 -4.49109 -7.1725 -1.56266 -5.05056 -6.79699 -2.05407 
[...]
POINT_DATA 1002
FIELD FieldData 4
_paraPhi 1 1002 double
6.2831853072 3.1415926536 6.2831853072 3.1415926536 4.7123889804 4.7123889804 1.5707963268 1.5707963268 3.6951670125 
5.7296109483 2.5880182947 0.5535743589 6.2831853072 6.2831853072 6.2831853072 6.2831853072 3.1415926536 3.1415926536 
3.1415926536 3.1415926536 3.1415926536 6.1053039672 5.898798347 5.6768734901 5.4599499503 5.2659633393 5.1032165617 
4.9713148346 4.8656852733 4.7809517865 0.17788134 0.38438696014 0.60631181711 0.82323535693 1.0172219679 1.1799687454 
1.3118704726 1.4175000338 1.5022335207 6.1892828907 6.1070320098 6.035312792 5.9728339911 5.9183214791 5.8706119594 
5.8286879411 5.7916808611 5.7588591896 0.093902416448 0.17615329733 0.2478725152 0.31035131605 0.36486382811 0.41257334776 
0.45449736604 0.4915044461 0.52432611754 3.3194739936 3.5259796137 3.7479044707 3.9648280105 4.1588146215 4.321561399 
4.4534631262 4.5590926874 4.6438261743 2.9637113136 2.7572056934 2.5352808365 2.3183572967 2.1243706857 1.9616239082 
1.829722181 1.7240926197 1.6393591329 3.23549507 3.3177459509 3.3894651688 3.4519439696 3.5064564817 3.5541660013 
3.5960900196 3.6330970997 3.6659187711 3.0476902371 2.9654393563 2.8937201384 2.8312413375 2.7767288255 2.7290193058 
2.6870952876 2.6500882075 2.617266536 6.2831853072 6.2831853072 6.2831853072 6.2831853072 3.1415926536 3.1415926536 
3.1415926536 3.1415926536 3.1415926536 6.1053039672 5.898798347 5.6768734901 5.4599499503 5.2659633393 5.1032165617 
4.9713148346 4.8656852733 4.7809517865 0.17788134 0.38438696014 0.60631181711 0.82323535693 1.0172219679 1.1799687454 
1.3118704726 1.4175000338 1.5022335207 6.1892828907 6.1070320098 6.035312792 5.9728339911 5.9183214791 5.8706119594 
5.8286879411 5.7916808611 5.7588591896 0.093902416448 0.17615329733 0.2478725152 0.31035131605 0.36486382811 0.41257334776 
0.45449736604 0.4915044461 0.52432611754 3.3194739936 3.5259796137 3.7479044707 3.9648280105 4.1588146215 4.321561399 
4.4534631262 4.5590926874 4.6438261743 2.9637113136 2.7572056934 2.5352808365 2.3183572967 2.1243706857 1.9616239082 
1.829722181 1.7240926197 1.6393591329 3.23549507 3.3177459509 3.3894651688 3.4519439696 3.5064564817 3.5541660013 
3.5960900196 3.6330970997 3.6659187711 3.0476902371 2.9654393563 2.8937201384 2.8312413375 2.7767288255 2.7290193058 
2.6870952876 2.6500882075 2.617266536 4.7123889804 4.7123889804 4.7123889804 4.7123889804 4.7123889804 4.7123889804 
4.7123889804 4.7123889804 4.7123889804 4.6087898617 4.4991390697 4.3857031936 4.2712800401 4.1588146215 4.0509635631 
3.94975894 3.8564636551 3.7716124825 4.8159880991 4.9256388911 5.0390747672 5.1534979207 5.2659633393 5.3738143976 
5.4750190208 5.5683143056 5.6531654782 4.6087898617 4.4991390697 4.3857031936 4.2712800401 4.1588146215 4.0509635631 
3.94975894 3.8564636551 3.7716124825 4.8159880991 4.9256388911 5.0390747672 5.1534979207 5.2659633393 5.3738143976 
5.4750190208 5.5683143056 5.6531654782 1.5707963268 1.5707963268 1.5707963268 1.5707963268 1.5707963268 1.5707963268 
1.5707963268 1.5707963268 1.5707963268 1.6743954455 1.7840462375 1.8974821136 2.0119052671 2.1243706857 2.232221744 
2.3334263672 2.426721652 2.5115728246 1.4671972081 1.3575464161 1.24411054 1.1296873865 1.0172219679 0.90937090954 
0.80816628637 0.71487100155 0.63001982895 1.6743954455 1.7840462375 1.8974821136 2.0119052671 2.1243706857 2.232221744 
2.3334263672 2.426721652 2.5115728246 1.4671972081 1.3575464161 1.24411054 1.1296873865 1.0172219679 0.90937090954 
0.80816628637 0.71487100155 0.63001982895 3.6007720849 3.4966939854 3.3839471039 3.2645756454 3.1415926536 3.0186096618 
2.8992382033 2.7864913217 2.6824132222 5.8240058758 5.9280839753 6.0408308569 6.1602023154 6.2831853072 0.12298299178 
0.2423544503 0.35510133185 0.45917943135 6.0560271438 5.7885595667 5.9702140275 5.5125918794 5.6029703303 5.7885595667 
5.2659633393 5.2659633393 5.2659633393 5.2659633393 5.0674903122 5.0120975802 4.9155579264 4.7123889804 4.1588146215 
4.9155579264 4.8353719722 4.7123889804 4.5092200343 4.1588146215 3.6362183941 4.8004512023 4.7123889804 4.5894059886 
4.4126803806 4.1588146215 3.8218076305 3.4545639333 4.7123889804 4.6243267584 4.5092200343 4.3572876485 4.1588146215 
3.9121860814 3.6362183941 3.368750817 6.0174235957 5.9434319871 5.8263323547 5.8809213739 5.7674481418 5.6279784266 
5.8278025282 5.718968232 5.5891129425 5.4372443565 5.7823484065 5.678536687 5.5575666702 5.4192596322 5.2659633393 
5.743164462 5.6444075337 5.5314983644 5.4046708639 5.2659633393 5.1195510325 5.7091357773 5.6152775188 5.5096229709 
5.3926039573 5.2659633393 5.1329233157 4.9978930058 5.6793730533 5.5901633916 5.4910209005 5.3824597928 5.2659633393 
5.1440684722 5.0201624502 4.8979782167 5.5683143056 5.4750190208 5.4750190208 5.3738143976 5.3738143976 5.3738143976 
5.2659633393 5.2659633393 5.2659633393 5.2659633393 5.1534979207 5.1534979207 5.1534979207 5.1534979207 5.1534979207 
5.0390747672 5.0390747672 5.0390747672 5.0390747672 5.0390747672 5.0390747672 4.9256388911 4.9256388911 4.9256388911 
4.9256388911 4.9256388911 4.9256388911 4.9256388911 4.8159880991 4.8159880991 4.8159880991 4.8159880991 4.8159880991 
4.8159880991 4.8159880991 4.8159880991 4.6087898617 4.6087898617 4.4991390697 4.6087898617 4.4991390697 4.3857031936 
4.6087898617 4.4991390697 4.3857031936 4.2712800401 4.6087898617 4.4991390697 4.3857031936 4.2712800401 4.1588146215 
4.6087898617 4.4991390697 4.3857031936 4.2712800401 4.1588146215 4.0509635631 4.6087898617 4.4991390697 4.3857031936 
4.2712800401 4.1588146215 4.0509635631 3.94975894 4.6087898617 4.4991390697 4.3857031936 4.2712800401 4.1588146215 
4.0509635631 3.94975894 3.8564636551 4.526799744 4.4046155105 4.426884955 4.2807094886 4.2918546451 4.3052269283 
4.1588146215 4.1588146215 4.1588146215 4.1588146215 4.042318168 4.0321740035 4.0201070968 4.0055183285 3.9875336042 
3.9337570603 3.9151549899 3.8932795963 3.8672112905 3.8356650183 3.7967995342 3.8346145692 3.809500442 3.7803704271 
3.7462412737 3.7058097288 3.657329819 3.5984456061 3.7454049075 3.7156421835 3.6816134988 3.6424295543 3.5969754326 
3.5438565869 3.4813459737 3.4073543651 3.5642842451 3.4524645613 3.5233842518 3.3320300872 3.403123212 3.4773852225 
3.20576226 3.2746326772 3.348015857 3.4255060145 3.0774230472 3.1415926536 3.2112816139 3.2864685043 3.3668817272 
2.95115522 3.00855263 3.0719036933 3.1415926536 3.2178377658 3.3005964304 2.8307207459 2.8800620952 2.9351694502 
2.9967168029 3.0653475414 3.1415926536 3.225752376 2.718901062 2.7598010554 2.8058000847 2.8576792927 2.91630358 
2.9825888767 3.0574329311 3.1415926536 3.5642842451 3.5233842518 3.4524645613 3.4773852225 3.403123212 3.3320300872 
3.4255060145 3.348015857 3.2746326772 3.20576226 3.3668817272 3.2864685043 3.2112816139 3.1415926536 3.0774230472 
3.3005964304 3.2178377658 3.1415926536 3.0719036933 3.00855263 2.95115522 3.225752376 3.1415926536 3.0653475414 
2.9967168029 2.9351694502 2.8800620952 2.8307207459 3.1415926536 3.0574329311 2.9825888767 2.91630358 2.8576792927 
2.8058000847 2.7598010554 2.718901062 4.526799744 4.426884955 4.4046155105 4.3052269283 4.2918546451 4.2807094886 
4.1588146215 4.1588146215 4.1588146215 4.1588146215 3.9875336042 4.0055183285 4.0201070968 4.0321740035 4.042318168 
3.7967995342 3.8356650183 3.8672112905 3.8932795963 3.9151549899 3.9337570603 3.5984456061 3.657329819 3.7058097288 
3.7462412737 3.7803704271 3.809500442 3.8346145692 3.4073543651 3.4813459737 3.5438565869 3.5969754326 3.6424295543 
3.6816134988 3.7156421835 3.7454049075 4.7123889804 4.8004512023 4.6243267584 4.9155579264 4.7123889804 4.5092200343 
5.0674903122 4.8353719722 4.5894059886 4.3572876485 5.2659633393 5.0120975802 4.7123889804 4.4126803806 4.1588146215 
5.5125918794 5.2659633393 4.9155579264 4.5092200343 4.1588146215 3.9121860814 5.7885595667 5.6029703303 5.2659633393 
4.7123889804 4.1588146215 3.8218076305 3.6362183941 6.0560271438 5.9702140275 5.7885595667 5.2659633393 4.1588146215 
3.6362183941 3.4545639333 3.368750817 0.22715816343 0.49462574053 0.3129712797 0.77059342779 0.68021497688 0.49462574053 
1.0172219679 1.0172219679 1.0172219679 1.0172219679 1.2156949949 1.271087727 1.3676273807 1.5707963268 2.1243706857 
1.3676273807 1.447813335 1.5707963268 1.7739652728 2.1243706857 2.6469669131 1.4827341049 1.5707963268 1.6937793186 
1.8705049266 2.1243706857 2.4613776767 2.8286213739 1.5707963268 1.6588585487 1.7739652728 1.9258976586 2.1243706857 
2.3709992258 2.6469669131 2.9144344902 1.7563855631 1.8785697967 1.8563003522 2.0024758186 1.9913306621 1.9779583789 
2.1243706857 2.1243706857 2.1243706857 2.1243706857 2.2408671392 2.2510113037 2.2630782103 2.2776669786 2.295651703 
2.3494282469 2.3680303173 2.3899057108 2.4159740166 2.4475202889 2.486385773 2.448570738 2.4736848652 2.5028148801 
2.5369440334 2.5773755784 2.6258554882 2.6847397011 2.5377803997 2.5675431237 2.6015718084 2.6407557529 2.6862098746 
2.7393287203 2.8018393335 2.8758309421 1.6743954455 1.6743954455 1.7840462375 1.6743954455 1.7840462375 1.8974821136 
1.6743954455 1.7840462375 1.8974821136 2.0119052671 1.6743954455 1.7840462375 1.8974821136 2.0119052671 2.1243706857 
1.6743954455 1.7840462375 1.8974821136 2.0119052671 2.1243706857 2.232221744 1.6743954455 1.7840462375 1.8974821136 
2.0119052671 2.1243706857 2.232221744 2.3334263672 1.6743954455 1.7840462375 1.8974821136 2.0119052671 2.1243706857 
2.232221744 2.3334263672 2.426721652 1.4671972081 1.3575464161 1.4671972081 1.24411054 1.3575464161 1.4671972081 
1.1296873865 1.24411054 1.3575464161 1.4671972081 1.0172219679 1.1296873865 1.24411054 1.3575464161 1.4671972081 
0.90937090954 1.0172219679 1.1296873865 1.24411054 1.3575464161 1.4671972081 0.80816628637 0.90937090954 1.0172219679 
1.1296873865 1.24411054 1.3575464161 1.4671972081 0.71487100155 0.80816628637 0.90937090954 1.0172219679 1.1296873865 
1.24411054 1.3575464161 1.4671972081 0.60381225391 0.57404952988 0.69302191562 0.54002084522 0.66790778838 0.79216440667 
0.50083690068 0.63877777351 0.77356233629 0.90072551443 0.45538277901 0.60464862014 0.75168694275 0.89058134991 1.0172219679 
0.40226393329 0.56421707518 0.72561863695 0.87851444325 1.0172219679 1.139116835 0.33975332011 0.51573716537 0.69407236469 
0.86392567495 1.0172219679 1.1502619915 1.2630228569 0.26576171152 0.45685295248 0.6552068806 0.84594095064 1.0172219679 
1.1636342747 1.2852923014 1.3852070904 0.22715816343 0.3129712797 0.49462574053 0.49462574053 0.68021497688 0.77059342779 
1.0172219679 1.0172219679 1.0172219679 1.0172219679 2.1243706857 1.5707963268 1.3676273807 1.271087727 1.2156949949 
2.6469669131 2.1243706857 1.7739652728 1.5707963268 1.447813335 1.3676273807 2.8286213739 2.4613776767 2.1243706857 
1.8705049266 1.6937793186 1.5707963268 1.4827341049 2.9144344902 2.6469669131 2.3709992258 2.1243706857 1.9258976586 
1.7739652728 1.6588585487 1.5707963268 1.7563855631 1.8563003522 1.8785697967 1.9779583789 1.9913306621 2.0024758186 
2.1243706857 2.1243706857 2.1243706857 2.1243706857 2.295651703 2.2776669786 2.2630782103 2.2510113037 2.2408671392 
2.486385773 2.4475202889 2.4159740166 2.3899057108 2.3680303173 2.3494282469 2.6847397011 2.6258554882 2.5773755784 
2.5369440334 2.5028148801 2.4736848652 2.448570738 2.8758309421 2.8018393335 2.7393287203 2.6862098746 2.6407557529 
2.6015718084 2.5675431237 2.5377803997 5.8604937156 5.901393709 5.9723133995 5.9473927383 6.0216547488 6.0927478736 
5.9992719463 6.0767621038 6.1501452836 6.2190157008 6.0578962336 6.1383094565 6.2134963469 0 0.064169606361 
6.1241815303 6.206940195 6.2831853072 0.069688960264 0.13304002361 0.19043743361 6.1990255847 0 0.07624511221 
0.14487585072 0.20642320337 0.26153055843 0.3108719077 0 0.084159722458 0.15900377685 0.22528907359 0.28391336087 
0.3357925689 0.38179159818 0.42269159155 5.8604937156 5.9723133995 5.901393709 6.0927478736 6.0216547488 5.9473927383 
6.2190157008 6.1501452836 6.0767621038 5.9992719463 0.064169606361 0 6.2134963469 6.1383094565 6.0578962336 
0.19043743361 0.13304002361 0.069688960264 6.2831853072 6.206940195 6.1241815303 0.3108719077 0.26153055843 0.20642320337 
0.14487585072 0.07624511221 6.2831853072 6.1990255847 0.42269159155 0.38179159818 0.3357925689 0.28391336087 0.22528907359 
0.15900377685 0.084159722458 0 5.6793730533 5.7091357773 5.5901633916 5.743164462 5.6152775188 5.4910209005 
5.7823484065 5.6444075337 5.5096229709 5.3824597928 5.8278025282 5.678536687 5.5314983644 5.3926039573 5.2659633393 
5.8809213739 5.718968232 5.5575666702 5.4046708639 5.2659633393 5.1440684722 5.9434319871 5.7674481418 5.5891129425 
5.4192596322 5.2659633393 5.1329233157 5.0201624502 6.0174235957 5.8263323547 5.6279784266 5.4372443565 5.2659633393 
5.1195510325 4.9978930058 4.8979782167 1.3852070904 1.2852923014 1.2630228569 1.1636342747 1.1502619915 1.139116835 
1.0172219679 1.0172219679 1.0172219679 1.0172219679 0.84594095064 0.86392567495 0.87851444325 0.89058134991 0.90072551443 
0.6552068806 0.69407236469 0.72561863695 0.75168694275 0.77356233629 0.79216440667 0.45685295248 0.51573716537 0.56421707518 
0.60464862014 0.63877777351 0.66790778838 0.69302191562 0.26576171152 0.33975332011 0.40226393329 0.45538277901 0.50083690068 
0.54002084522 0.57404952988 0.60381225391 
_paraPhiHalf 1 1002 double
0 3.1415926536 0 3.1415926536 1.5707963268 1.5707963268 1.5707963268 1.5707963268 2.5880182947 
0.5535743589 2.5880182947 0.5535743589 0 0 0 0 3.1415926536 3.1415926536 
3.1415926536 3.1415926536 3.1415926536 0.17788134 0.38438696014 0.60631181711 0.82323535693 1.0172219679 1.1799687454 
1.3118704726 1.4175000338 1.5022335207 0.17788134 0.38438696014 0.60631181711 0.82323535693 1.0172219679 1.1799687454 
1.3118704726 1.4175000338 1.5022335207 0.093902416448 0.17615329733 0.2478725152 0.31035131605 0.36486382811 0.41257334776 
0.45449736604 0.4915044461 0.52432611754 0.093902416448 0.17615329733 0.2478725152 0.31035131605 0.36486382811 0.41257334776 
0.45449736604 0.4915044461 0.52432611754 2.9637113136 2.7572056934 2.5352808365 2.3183572967 2.1243706857 1.9616239082 
1.829722181 1.7240926197 1.6393591329 2.9637113136 2.7572056934 2.5352808365 2.3183572967 2.1243706857 1.9616239082 
1.829722181 1.7240926197 1.6393591329 3.0476902371 2.9654393563 2.8937201384 2.8312413375 2.7767288255 2.7290193058 
2.6870952876 2.6500882075 2.617266536 3.0476902371 2.9654393563 2.8937201384 2.8312413375 2.7767288255 2.7290193058 
2.6870952876 2.6500882075 2.617266536 0 0 0 0 3.1415926536 3.1415926536 
3.1415926536 3.1415926536 3.1415926536 0.17788134 0.38438696014 0.60631181711 0.82323535693 1.0172219679 1.1799687454 
1.3118704726 1.4175000338 1.5022335207 0.17788134 0.38438696014 0.60631181711 0.82323535693 1.0172219679 1.1799687454 
1.3118704726 1.4175000338 1.5022335207 0.093902416448 0.17615329733 0.2478725152 0.31035131605 0.36486382811 0.41257334776 
0.45449736604 0.4915044461 0.52432611754 0.093902416448 0.17615329733 0.2478725152 0.31035131605 0.36486382811 0.41257334776 
0.45449736604 0.4915044461 0.52432611754 2.9637113136 2.7572056934 2.5352808365 2.3183572967 2.1243706857 1.9616239082 
1.829722181 1.7240926197 1.6393591329 2.9637113136 2.7572056934 2.5352808365 2.3183572967 2.1243706857 1.9616239082 
1.829722181 1.7240926197 1.6393591329 3.0476902371 2.9654393563 2.8937201384 2.8312413375 2.7767288255 2.7290193058 
2.6870952876 2.6500882075 2.617266536 3.0476902371 2.9654393563 2.8937201384 2.8312413375 2.7767288255 2.7290193058 
2.6870952876 2.6500882075 2.617266536 1.5707963268 1.5707963268 1.5707963268 1.5707963268 1.5707963268 1.5707963268 
1.5707963268 1.5707963268 1.5707963268 1.6743954455 1.7840462375 1.8974821136 2.0119052671 2.1243706857 2.232221744 
2.3334263672 2.426721652 2.5115728246 1.4671972081 1.3575464161 1.24411054 1.1296873865 1.0172219679 0.90937090954 
0.80816628637 0.71487100155 0.63001982895 1.6743954455 1.7840462375 1.8974821136 2.0119052671 2.1243706857 2.232221744 
2.3334263672 2.426721652 2.5115728246 1.4671972081 1.3575464161 1.24411054 1.1296873865 1.0172219679 0.90937090954 
0.80816628637 0.71487100155 0.63001982895 1.5707963268 1.5707963268 1.5707963268 1.5707963268 1.5707963268 1.5707963268 
1.5707963268 1.5707963268 1.5707963268 1.6743954455 1.7840462375 1.8974821136 2.0119052671 2.1243706857 2.232221744 
2.3334263672 2.426721652 2.5115728246 1.4671972081 1.3575464161 1.24411054 1.1296873865 1.0172219679 0.90937090954 
0.80816628637 0.71487100155 0.63001982895 1.6743954455 1.7840462375 1.8974821136 2.0119052671 2.1243706857 2.232221744 
2.3334263672 2.426721652 2.5115728246 1.4671972081 1.3575464161 1.24411054 1.1296873865 1.0172219679 0.90937090954 
0.80816628637 0.71487100155 0.63001982895 2.6824132222 2.7864913217 2.8992382033 3.0186096618 3.1415926536 3.0186096618 
2.8992382033 2.7864913217 2.6824132222 0.45917943135 0.35510133185 0.2423544503 0.12298299178 0 0.12298299178 
0.2423544503 0.35510133185 0.45917943135 0.22715816343 0.49462574053 0.3129712797 0.77059342779 0.68021497688 0.49462574053 
1.0172219679 1.0172219679 1.0172219679 1.0172219679 1.2156949949 1.271087727 1.3676273807 1.5707963268 2.1243706857 
1.3676273807 1.447813335 1.5707963268 1.7739652728 2.1243706857 2.6469669131 1.4827341049 1.5707963268 1.6937793186 
1.8705049266 2.1243706857 2.4613776767 2.8286213739 1.5707963268 1.6588585487 1.7739652728 1.9258976586 2.1243706857 
2.3709992258 2.6469669131 2.9144344902 0.26576171152 0.33975332011 0.45685295248 0.40226393329 0.51573716537 0.6552068806 
0.45538277901 0.56421707518 0.69407236469 0.84594095064 0.50083690068 0.60464862014 0.72561863695 0.86392567495 1.0172219679 
0.54002084522 0.63877777351 0.75168694275 0.87851444325 1.0172219679 1.1636342747 0.57404952988 0.66790778838 0.77356233629 
0.89058134991 1.0172219679 1.1502619915 1.2852923014 0.60381225391 0.69302191562 0.79216440667 0.90072551443 1.0172219679 
1.139116835 1.2630228569 1.3852070904 0.71487100155 0.80816628637 0.80816628637 0.90937090954 0.90937090954 0.90937090954 
1.0172219679 1.0172219679 1.0172219679 1.0172219679 1.1296873865 1.1296873865 1.1296873865 1.1296873865 1.1296873865 
1.24411054 1.24411054 1.24411054 1.24411054 1.24411054 1.24411054 1.3575464161 1.3575464161 1.3575464161 
1.3575464161 1.3575464161 1.3575464161 1.3575464161 1.4671972081 1.4671972081 1.4671972081 1.4671972081 1.4671972081 
1.4671972081 1.4671972081 1.4671972081 1.6743954455 1.6743954455 1.7840462375 1.6743954455 1.7840462375 1.8974821136 
1.6743954455 1.7840462375 1.8974821136 2.0119052671 1.6743954455 1.7840462375 1.8974821136 2.0119052671 2.1243706857 
1.6743954455 1.7840462375 1.8974821136 2.0119052671 2.1243706857 2.232221744 1.6743954455 1.7840462375 1.8974821136 
2.0119052671 2.1243706857 2.232221744 2.3334263672 1.6743954455 1.7840462375 1.8974821136 2.0119052671 2.1243706857 
2.232221744 2.3334263672 2.426721652 1.7563855631 1.8785697967 1.8563003522 2.0024758186 1.9913306621 1.9779583789 
2.1243706857 2.1243706857 2.1243706857 2.1243706857 2.2408671392 2.2510113037 2.2630782103 2.2776669786 2.295651703 
2.3494282469 2.3680303173 2.3899057108 2.4159740166 2.4475202889 2.486385773 2.448570738 2.4736848652 2.5028148801 
2.5369440334 2.5773755784 2.6258554882 2.6847397011 2.5377803997 2.5675431237 2.6015718084 2.6407557529 2.6862098746 
2.7393287203 2.8018393335 2.8758309421 2.718901062 2.8307207459 2.7598010554 2.95115522 2.8800620952 2.8058000847 
3.0774230472 3.00855263 2.9351694502 2.8576792927 3.0774230472 3.1415926536 3.0719036933 2.9967168029 2.91630358 
2.95115522 3.00855263 3.0719036933 3.1415926536 3.0653475414 2.9825888767 2.8307207459 2.8800620952 2.9351694502 
2.9967168029 3.0653475414 3.1415926536 3.0574329311 2.718901062 2.7598010554 2.8058000847 2.8576792927 2.91630358 
2.9825888767 3.0574329311 3.1415926536 2.718901062 2.7598010554 2.8307207459 2.8058000847 2.8800620952 2.95115522 
2.8576792927 2.9351694502 3.00855263 3.0774230472 2.91630358 2.9967168029 3.0719036933 3.1415926536 3.0774230472 
2.9825888767 3.0653475414 3.1415926536 3.0719036933 3.00855263 2.95115522 3.0574329311 3.1415926536 3.0653475414 