# vtk DataFile Version 5.1
vtk output
ASCII
DATASET POLYDATA
POINTS 100 float
-4.05416 4.61616 1.16542 -4.06308 4.60896 1.1612 -4.08912 4.58595 1.15284 
-4.13143 4.5474 1.14174 -4.18871 4.49362 1.12988 -4.25935 4.42497 1.11957 
-4.34161 4.34167 1.11302 -4.43382 4.24377 1.112 -4.53455 4.13114 1.11755 
-4.64271 4.00351 1.12988 -4.7576 3.86054 1.14837 -4.87898 3.70203 1.17171 
-5.00696 3.52801 1.19818 -5.14193 3.3389 1.22596 -5.28449 3.13554 1.25339 
-5.43527 2.91924 1.2792 -5.59485 2.69165 1.30267 -5.76372 2.45465 1.32356 
-5.94216 2.2101 1.34206 -6.13027 1.9597 1.35862 -6.32795 1.70479 1.37368 
-6.53494 1.44629 1.38758 -6.75088 1.18464 1.40038 -6.97534 0.919878 1.41184 
-7.20787 0.651777 1.42149 -7.44808 0.37999 1.42873 -7.6957 0.104206 1.43301 
-7.95054 -0.175723 1.43393 -8.2126 -0.459733 1.43143 -8.48201 -0.74755 1.42574 
-8.75904 -1.03877 1.41742 -9.04405 -1.33297 1.40723 -9.33746 -1.62981 1.39599 
-9.63964 -1.92915 1.38446 -9.95088 -2.23106 1.3732 -10.2713 -2.5358 1.36253 
-10.6009 -2.84374 1.35257 -10.9394 -3.15524 1.34327 -11.2864 -3.47048 1.33457 
-11.6415 -3.78947 1.32648 -12.0043 -4.11195 1.3192 -12.3743 -4.43759 1.31313 
-12.7516 -4.76607 1.30877 -13.1362 -5.09744 1.30663 -13.5284 -5.43235 1.307 
-13.9289 -5.77231 1.30973 -14.3379 -6.11982 1.31408 -14.7556 -6.47842 1.31857 
-15.1815 -6.85245 1.32103 -15.6145 -7.24678 1.31872 -16.0525 -7.66625 1.30859 
-16.4921 -8.1152 1.28762 -16.9292 -8.59687 1.25319 -17.359 -9.11298 1.20344 
-17.7761 -9.66345 1.13748 -18.1751 -10.2464 1.05555 -18.5512 -10.8581 0.958935 
-18.9004 -11.4938 0.849823 -19.2198 -12.1479 0.730968 -19.5081 -12.8145 0.605335 
-19.7653 -13.4885 0.475731 -19.9927 -14.1654 0.344493 -20.1925 -14.8422 0.213284 
-20.3674 -15.5171 0.0830273 -20.5201 -16.1896 -0.0460345 -20.6531 -16.86 -0.174164 
-20.768 -17.5291 -0.301892 -20.8658 -18.1978 -0.429758 -20.9466 -18.8665 -0.558102 
-21.0096 -19.5351 -0.686909 -21.0541 -20.2025 -0.815776 -21.0791 -20.8667 -0.943956 
-21.084 -21.5253 -1.07049 -21.0689 -22.1753 -1.19436 -21.035 -22.8135 -1.3147 
-20.9842 -23.4371 -1.43087 -20.9193 -24.0437 -1.54256 -20.8441 -24.6314 -1.64977 
-20.7623 -25.1988 -1.75272 -20.6781 -25.7452 -1.8517 -20.5952 -26.2701 -1.94694 
-20.5173 -26.7731 -2.03847 -20.4471 -27.2539 -2.12598 -20.387 -27.7119 -2.20887 
-20.3387 -28.1464 -2.28624 -20.3033 -28.5563 -2.35703 -20.2815 -28.9403 -2.42013 
-20.2737 -29.2972 -2.47462 -20.2795 -29.6256 -2.51985 -20.2984 -29.9246 -2.5556 
-20.3292 -30.1933 -2.58209 -20.3699 -30.4315 -2.60003 -20.4182 -30.6391 -2.6105 
-20.471 -30.8165 -2.61489 -20.5248 -30.9644 -2.61475 -20.5757 -31.0837 -2.61163 
-20.62 -31.1752 -2.60702 -20.6543 -31.2398 -2.60216 -20.6758 -31.2781 -2.59804 
-20.6829 -31.2907 -2.59526 
LINES 2 100
OFFSETS vtktypeint64
0 100 
CONNECTIVITY vtktypeint64
0 1 2 3 4 5 6 7 8 
9 10 11 12 13 14 15 16 17 
18 19 20 21 22 23 24 25 26 
27 28 29 30 31 32 33 34 35 
36 37 38 39 40 41 42 43 44 
45 46 47 48 49 50 51 52 53 
54 55 56 57 58 59 60 61 62 
63 64 65 66 67 68 69 70 71 
72 73 74 75 76 77 78 79 80 
81 82 83 84 85 86 87 88 89 
90 91 92 93 94 95 96 97 98 
99 
POINT_DATA 100
FIELD FieldData 3
_theta 1 100 double
0 0.031733259127 0.063466518254 0.095199777382 0.12693303651 0.15866629564 0.19039955476 0.22213281389 0.25386607302 
0.28559933214 0.31733259127 0.3490658504 0.38079910953 0.41253236865 0.44426562778 0.47599888691 0.50773214603 0.53946540516 
0.57119866429 0.60293192342 0.63466518254 0.66639844167 0.6981317008 0.72986495992 0.76159821905 0.79333147818 0.82506473731 
0.85679799643 0.88853125556 0.92026451469 0.95199777382 0.98373103294 1.0154642921 1.0471975512 1.0789308103 1.1106640695 
1.1423973286 1.1741305877 1.2058638468 1.237597106 1.2693303651 1.3010636242 1.3327968833 1.3645301425 1.3962634016 
1.4279966607 1.4597299198 1.491463179 1.5231964381 1.5549296972 1.5866629564 1.6183962155 1.6501294746 1.6818627337 
1.7135959929 1.745329252 1.7770625111 1.8087957702 1.8405290294 1.8722622885 1.9039955476 1.9357288068 1.9674620659 
1.999195325 2.0309285841 2.0626618433 2.0943951024 2.1261283615 2.1578616206 2.1895948798 2.2213281389 2.253061398 
2.2847946572 2.3165279163 2.3482611754 2.3799944345 2.4117276937 2.4434609528 2.4751942119 2.506927471 2.5386607302 
2.5703939893 2.6021272484 2.6338605076 2.6655937667 2.6973270258 2.7290602849 2.7607935441 2.7925268032 2.8242600623 
2.8559933214 2.8877265806 2.9194598397 2.9511930988 2.982926358 3.0146596171 3.0463928762 3.0781261353 3.1098593945 
3.1415926536 
_radius 1 100 double
1.3203721447e-14 0.29241089532 0.584702936 0.87640393244 1.1665044995 1.4534111119 1.7350791449 2.0092796515 2.2739190187 
2.5273255327 2.7684377934 2.9968653632 3.2128277464 3.4170020578 3.6103181335 3.793736779 3.9680413947 4.1336714623 
4.2906268591 4.4384677267 4.5764194943 4.7035673412 4.819097549 4.9225268603 5.0138630322 5.0936593428 5.1629541279 
5.2231123728 5.2756025587 5.3217479066 5.3624917411 5.3982167107 5.4286564013 5.4529289154 5.4696989952 5.4774403515 
5.4747357977 5.4605361676 5.4343096087 5.3960476601 5.3461396715 5.2851652138 5.2136725093 5.1320072362 5.0402379677 
4.9382027983 4.825682293 4.7026852258 4.5698112341 4.4286280569 4.2819771368 4.1341102752 3.9905683992 3.8577426663 
3.7421126801 3.6492532417 3.5828481837 3.5440716861 3.5316062458 3.5422099714 3.571450522 3.6142905852 3.6654790732 
3.7198690425 3.7727714401 3.8203518739 3.8599858337 3.8904594367 3.9119401949 3.925714435 3.933755346 3.9382207601 
3.9409780545 3.9432295115 3.9452824826 3.9464811229 3.945288989 3.9394871803 3.9264378779 3.9033602849 3.8675719477 
3.8166613797 3.7485787663 3.6616588803 3.5546150561 3.4265501676 3.2770118028 3.1060839771 2.9144772825 2.7035668117 
2.4753337169 2.2321896713 1.9767029678 1.7112929303 1.4379928196 1.1583707673 0.87363397566 0.5848534989 0.29318884808 
6.0768182001e-14 
_area 1 100 double
0 0.2383445703 0.95373952275 2.1448893466 3.8028585596 5.9044464839 8.4083407112 11.256283989 14.379212188 
17.706152125 21.172760341 24.727114068 28.332068604 31.964926087 35.615468816 39.282811568 42.970939657 46.682873779 
50.414075365 54.14650203 57.845153764 61.458675078 64.924506383 68.177525527 71.159815372 73.828872601 76.162388699 
78.159107321 79.83635862 81.225198394 82.363794882 83.289485274 84.030352242 84.598090794 84.984483134 85.163194158 
85.096935995 84.748151132 84.089904668 83.113019097 81.826363122 80.250248306 78.406712054 76.311870101 73.973351668 
71.392597391 68.570023089 65.511417883 62.235817403 58.785548264 55.236275135 51.702640931 48.337234454 45.322252891 
42.844080747 41.02598436 39.864514788 39.276316589 39.162920444 39.421317013 39.943962173 40.628221152 41.388051433 
42.157611259 42.883484956 43.512439484 43.988098541 44.263797303 44.322472688 44.18675789 43.913257841 43.577310557 
43.254376338 42.999206385 42.826458319 42.703653924 42.563073079 42.322785552 41.903406071 41.239453299 40.289000433 
39.038911508 37.500024686 35.692969128 33.633532111 31.327546987 28.777887264 25.997866438 23.023060334 19.916438768 
16.765348811 13.671453347 10.736824234 8.0510911811 5.6843358658 3.6873323164 2.0965350015 0.93924727639 0.23597515967 
2.5668012069e-13 
