# vtk DataFile Version 5.1
vtk output
ASCII
DATASET POLYDATA
POINTS 1002 float
-10.6385 -0.115969 -2.61882 -20.9249 -18.2909 -4.61358 -9.11577 -2.45803 3.81302 
-19.6069 -18.8158 0.0457845 -12.0237 -7.77648 -3.38424 -12.229 -8.64852 0.0194834 
-20.5578 -5.78128 -1.20696 -20.4706 -6.49128 2.66097 -14.9658 -30.2937 -4.71518 
-0.893762 -0.1552 -0.0970497 -23.449 -24.5635 -2.74115 -11.3736 4.86414 2.29737 
-11.5146 -0.969909 -2.76971 -12.5301 -1.99507 -2.88248 -13.6846 -3.199 -2.96001 
-15.0754 -4.68037 -3.04191 -16.7499 -6.6153 -3.2076 -18.4026 -9.01369 -3.48203 
-19.6138 -11.6071 -3.80456 -20.3206 -14.089 -4.11644 -20.7131 -16.3215 -4.38876 
-10.3016 -0.588733 -2.86322 -10.0228 -1.10732 -3.14094 -9.76103 -1.67157 -3.42205 
-9.49144 -2.40287 -3.65053 -9.30458 -3.3694 -3.81358 -9.33601 -4.43615 -3.92478 
-9.64878 -5.44614 -3.94705 -10.243 -6.34079 -3.83973 -11.0728 -7.1048 -3.63 
-11.5604 -0.202605 -2.48657 -12.5857 -0.413006 -2.33858 -13.6549 -0.78311 -2.15095 
-14.7434 -1.31309 -1.91417 -15.8788 -1.9838 -1.6901 -17.0173 -2.73281 -1.52542 
-18.0538 -3.49521 -1.3968 -18.9731 -4.26366 -1.30894 -19.8129 -5.03513 -1.26315 
-9.56463 0.38539 -2.57623 -8.40595 0.882514 -2.50615 -7.16987 1.32744 -2.41094 
-5.83418 1.6193 -2.26264 -4.46098 1.71339 -2.059 -3.27124 1.63293 -1.83771 
-2.36804 1.37308 -1.55074 -1.65743 0.94272 -1.12408 -1.13656 0.410372 -0.606626 
-10.4005 0.623176 -2.33465 -10.2094 1.34651 -1.96968 -10.055 2.10625 -1.58467 
-9.99943 2.91061 -1.20285 -10.0729 3.59557 -0.693331 -10.2081 4.07496 -0.0532478 
-10.4164 4.47017 0.531629 -10.7454 4.80351 1.06578 -11.1039 4.94756 1.66747 
-20.4737 -17.9665 -4.66092 -20.002 -17.4519 -4.69075 -19.4406 -16.7751 -4.63622 
-18.7703 -15.8818 -4.46635 -18.0673 -14.6205 -4.20506 -17.3224 -12.9624 -3.89612 
-16.3778 -11.1439 -3.60781 -15.1154 -9.5275 -3.41942 -13.5959 -8.387 -3.35872 
-21.2935 -17.27 -4.43966 -21.617 -16.0621 -4.22974 -21.8094 -14.7257 -3.94488 
-21.8573 -13.2828 -3.57777 -21.7845 -11.7725 -3.15396 -21.5921 -10.3272 -2.70055 
-21.3306 -9.02548 -2.2614 -21.068 -7.82857 -1.87919 -20.8126 -6.73099 -1.54178 
-20.7185 -20.0663 -4.85568 -20.3629 -21.9697 -5.13715 -19.8261 -23.932 -5.46688 
-19.0662 -25.8217 -5.79474 -18.1225 -27.5037 -6.03331 -17.1688 -28.8734 -6.15209 
-16.3357 -29.8432 -6.11371 -15.6411 -30.3736 -5.82594 -15.1532 -30.498 -5.3095 
-21.2895 -19.5633 -4.72676 -21.6322 -20.786 -4.86139 -21.9376 -21.985 -4.96708 
-22.1733 -23.1766 -4.94099 -22.3051 -24.1762 -4.74103 -22.4578 -24.8082 -4.44801 
-22.7652 -25.1129 -4.1154 -23.1119 -25.1474 -3.70622 -23.3382 -24.9359 -3.22555 
-10.0497 -3.27525 3.67817 -11.1804 -4.16521 3.47955 -12.583 -5.16361 3.19763 
-14.2234 -6.4283 2.77362 -15.9031 -8.09654 2.22883 -17.3759 -10.1309 1.65684 
-18.4585 -12.3799 1.11182 -19.1087 -14.6666 0.646648 -19.4417 -16.8371 0.303164 
-8.9328 -2.94547 3.49529 -8.74562 -3.5716 3.18458 -8.63152 -4.30187 2.89558 
-8.67926 -5.02541 2.55575 -8.94169 -5.71997 2.12556 -9.42109 -6.41002 1.66897 
-10.0418 -7.02816 1.22963 -10.7343 -7.54866 0.792954 -11.4787 -8.06555 0.376701 
-9.89345 -2.54312 4.03095 -10.8868 -2.71308 4.18939 -12.1409 -2.9504 4.2799 
-13.5629 -3.25257 4.27938 -15.0304 -3.64777 4.16312 -16.4559 -4.14001 3.9636 
-17.7106 -4.6899 3.70061 -18.7479 -5.27415 3.36377 -19.6562 -5.88338 2.99882 
-8.12138 -1.97635 3.67894 -7.05141 -1.55201 3.46474 -5.91522 -1.16626 3.2195 
-4.81804 -0.804127 2.93733 -3.84337 -0.522077 2.55976 -2.9297 -0.341073 2.14158 
-2.064 -0.21041 1.73965 -1.38302 -0.12604 1.24302 -0.991155 -0.111444 0.590354 
-8.68307 -1.64805 4.03045 -8.27631 -0.658156 4.15169 -8.01393 0.535845 4.2046 
-8.02202 1.81346 4.23725 -8.32728 2.96776 4.13707 -8.83239 3.85195 3.86621 
-9.45397 4.44037 3.58898 -10.1565 4.78202 3.29848 -10.837 4.91744 2.85428 
-19.2432 -18.2444 -0.0341228 -18.8731 -17.4496 -0.154807 -18.4054 -16.4657 -0.205677 
-17.8261 -15.3145 -0.170012 -17.1756 -14.0383 -0.0871143 -16.3995 -12.722 0.0456964 
-15.4562 -11.4232 0.162429 -14.4195 -10.2298 0.177892 -13.3407 -9.28654 0.114157 
-19.939 -18.0362 0.217118 -20.2992 -17.0906 0.40153 -20.6493 -15.9886 0.660209 
-20.9448 -14.7644 0.992694 -21.1481 -13.4373 1.32598 -21.2171 -12.0118 1.63505 
-21.1369 -10.5169 1.93432 -20.9554 -9.03742 2.21007 -20.726 -7.67837 2.45292 
-19.433 -20.5279 -0.220987 -19.1392 -22.462 -0.527431 -18.6981 -24.461 -0.8671 
-18.1074 -26.2392 -1.25127 -17.4503 -27.6759 -1.76646 -16.787 -28.8794 -2.39109 
-16.0569 -29.8453 -2.99247 -15.3438 -30.4159 -3.57745 -14.9365 -30.5354 -4.18408 
-19.9549 -20.262 -0.124693 -20.3702 -21.6889 -0.341233 -20.7735 -23.0347 -0.506829 
-21.1443 -24.1501 -0.666739 -21.5581 -24.8939 -0.966203 -21.9908 -25.2664 -1.35882 
-22.3701 -25.3269 -1.71897 -22.7402 -25.1627 -2.05932 -23.1225 -24.8942 -2.40886 
-11.6953 -7.95668 -3.23613 -11.4437 -8.17495 -3.03951 -11.282 -8.43223 -2.78467 
-11.1862 -8.66182 -2.43313 -11.1708 -8.77509 -1.97075 -11.254 -8.79579 -1.45291 
-11.4255 -8.80255 -0.967889 -11.6775 -8.78816 -0.571016 -11.9662 -8.72609 -0.255123 
-13.9445 -9.02876 -3.18334 -15.4972 -11.2674 -3.23889 -16.3864 -14.4052 -3.52223 
-16.8645 -17.7769 -3.81433 -17.07 -20.8804 -4.05807 -16.8655 -23.6205 -4.31269 
-16.4146 -25.9052 -4.52595 -15.9254 -27.7165 -4.67733 -15.4011 -29.1692 -4.7669 
-9.87349 -7.21263 -3.59965 -7.9958 -6.81092 -3.6707 -6.56145 -6.20513 -3.44884 
-5.32934 -5.39182 -3.06396 -4.24489 -4.49696 -2.62353 -3.3633 -3.53289 -2.09095 
-2.47616 -2.57354 -1.56082 -1.59606 -1.69318 -1.11455 -1.03298 -0.882035 -0.646467 
-13.6576 -9.81936 -0.270345 -14.9271 -11.5469 -0.661848 -15.8143 -13.8833 -1.15887 
-16.355 -16.7996 -1.6487 -16.6638 -19.9951 -2.04528 -16.6213 -22.9541 -2.45307 
-16.2035 -25.4461 -2.99281 -15.6739 -27.5229 -3.60764 -15.2359 -29.1518 -4.19121 
-10.5253 -7.90664 0.103423 -8.63768 -7.40013 0.200071 -6.72878 -6.97183 0.353428 
-5.00305 -6.44702 0.520216 -3.66416 -5.71141 0.580631 -2.72232 -4.73892 0.484909 
-1.97825 -3.59997 0.314837 -1.34074 -2.39492 0.161625 -0.942432 -1.21667 0.0330804 
-20.8156 -5.70285 -0.902856 -21.0324 -5.64033 -0.513565 -21.2092 -5.56107 -0.0699397 
-21.3822 -5.42145 0.419552 -21.4985 -5.27739 0.966592 -21.4321 -5.2866 1.52573 
-21.217 -5.50304 2.00588 -20.9862 -5.82699 2.34682 -20.7512 -6.16674 2.54976 
-21.4084 -7.15857 -1.32778 -22.2603 -8.7877 -1.45122 -23.0888 -10.6322 -1.62969 
-23.8658 -12.5752 -1.89426 -24.5103 -14.6595 -2.26306 -24.8684 -17.0929 -2.65472 
-24.8371 -19.6876 -2.87469 -24.4882 -21.8758 -2.87432 -23.9849 -23.4272 -2.79623 
-19.83 -4.4507 -0.864094 -19.005 -3.10362 -0.426991 -18.1071 -1.76348 0.0304701 
-17.1593 -0.448266 0.417453 -16.1859 0.821075 0.758943 -15.2197 1.99046 1.11109 
-14.2592 2.98967 1.43163 -13.2874 3.78588 1.70367 -12.321 4.39922 1.98868 
-21.3849 -7.90524 2.19185 -22.2142 -9.65522 1.62645 -22.9783 -11.7711 1.00398 
-23.7688 -14.0949 0.463052 -24.4066 -16.4059 0.0102047 -24.6619 -18.5994 -0.514286 
-24.5949 -20.5682 -1.14292 -24.3119 -22.1803 -1.75442 -23.8856 -23.4624 -2.2805 
-19.7096 -4.98774 3.06305 -18.9444 -3.41793 3.48408 -18.1565 -1.88386 3.83116 
-17.2034 -0.506187 3.99192 -16.1158 0.807791 4.00103 -15.0756 2.10704 3.91607 
-14.0922 3.15623 3.6512 -13.1188 3.8634 3.20724 -12.2038 4.4007 2.73089 
-14.8435 -31.3606 -4.87078 -15.3617 -32.1772 -4.85762 -16.6615 -32.5474 -4.70478 
-18.1497 -32.2571 -4.50537 -19.2636 -31.4001 -4.25618 -20.2588 -30.3059 -3.93518 
-21.3336 -29.0441 -3.61107 -22.2172 -27.5369 -3.30972 -22.8646 -25.9611 -3.01181 
-1.14409 0.879383 0.192065 -1.65242 1.91808 0.490412 -2.36253 2.96706 0.72841 
-3.29199 3.97438 0.877819 -4.41824 4.78745 1.00201 -5.74531 5.35889 1.22379 
-7.29085 5.69624 1.59069 -8.85618 5.69467 1.96584 -10.2208 5.35439 2.19612 
-11.282 -1.51296 -3.04077 -11.1261 -2.09505 -3.3543 -12.3741 -2.59476 -3.15975 
-11.0005 -2.77794 -3.62001 -12.3173 -3.29318 -3.43611 -13.6141 -3.89347 -3.17342 
-10.8813 -3.66292 -3.77809 -12.3954 -4.16075 -3.62225 -13.7219 -4.77586 -3.34442 
-15.2216 -5.58895 -3.18172 -10.8663 -4.67804 -3.85799 -12.6175 -5.14362 -3.7191 
-14.1209 -5.81848 -3.49075 -15.5754 -6.73526 -3.31225 -17.1358 -7.87623 -3.36247 
-11.1471 -5.66077 -3.84896 -13.0169 -6.1347 -3.72295 -14.7407 -6.93069 -3.61277 
-16.1535 -8.05008 -3.5115 -17.5467 -9.37372 -3.54685 -18.7767 -10.6275 -3.70831 
-11.8087 -6.58023 -3.71939 -13.6557 -7.17073 -3.60717 -15.407 -8.18824 -3.62073 
-16.7569 -9.55883 -3.70495 -17.9037 -11.0495 -3.80807 -18.9628 -12.3791 -3.95924 
-19.7573 -13.3842 -4.08443 -12.7031 -7.481 -3.52996 -14.4322 -8.31583 -3.47206 
-15.9873 -9.64172 -3.57013 -17.1649 -11.273 -3.80425 -18.0872 -12.8696 -4.0481 
-18.9494 -14.1699 -4.24326 -19.6845 -15.1336 -4.37152 -20.2364 -15.8322 -4.40886 
-9.1277 -0.0918765 -2.83868 -7.87144 0.369737 -2.78672 -8.71412 -0.637276 -3.11089 
-6.57079 0.702151 -2.67474 -7.35584 -0.287478 -3.04722 -8.31594 -1.30595 -3.37414 
-5.21175 0.826019 -2.44464 -6.04985 -0.137506 -2.88172 -6.94363 -1.16436 -3.27396 
-8.03916 -2.21114 -3.59603 -3.90634 0.759039 -2.16981 -4.77903 -0.178975 -2.58967 
-5.71604 -1.21251 -3.05028 -6.80683 -2.25158 -3.44563 -8.02671 -3.31041 -3.76045 
-2.84845 0.534544 -1.91455 -3.6511 -0.385372 -2.28871 -4.56187 -1.39224 -2.74852 
-5.65372 -2.42403 -3.17766 -6.96687 -3.42288 -3.55483 -8.23213 -4.45913 -3.86998 
-2.02161 0.154935 -1.57645 -2.76719 -0.743321 -1.96059 -3.63029 -1.72176 -2.42098 
-4.56435 -2.72672 -2.88302 -5.8413 -3.68278 -3.25924 -7.2205 -4.647 -3.64075 
-8.54961 -5.5683 -3.90143 -1.38424 -0.33983 -1.12496 -2.06975 -1.19923 -1.5428 
-2.97048 -2.14403 -2.00132 -3.8184 -3.13719 -2.52997 -4.84696 -4.08418 -2.97034 
-6.15873 -4.99259 -3.35162 -7.49842 -5.85285 -3.70577 -9.06018 -6.51553 -3.81247 
-1.27966 -2.03338 -0.550633 -1.84531 -3.27374 -0.475934 -2.00986 -2.89646 -1.0787 
-2.50059 -4.53708 -0.334523 -2.57043 -4.19609 -1.07134 -2.91184 -3.83769 -1.60254 
-3.23343 -5.69941 -0.104202 -3.14484 -5.53282 -0.929754 -3.39687 -5.20794 -1.62663 
-3.82005 -4.85423 -2.17176 -4.3805 -6.57044 0.0365877 -4.02738 -6.65173 -0.669369 
[...]
POINT_DATA 1002
FIELD FieldData 4
_paraPhi 1 1002 double
6.2831853072 3.1415926536 6.2831853072 3.1415926536 4.7123889804 4.7123889804 1.5707963268 1.5707963268 3.6951670125 
5.7296109483 2.5880182947 0.5535743589 6.2831853072 6.2831853072 6.2831853072 6.2831853072 3.1415926536 3.1415926536 
3.1415926536 3.1415926536 3.1415926536 6.1053039672 5.898798347 5.6768734901 5.4599499503 5.2659633393 5.1032165617 
4.9713148346 4.8656852733 4.7809517865 0.17788134 0.38438696014 0.60631181711 0.82323535693 1.0172219679 1.1799687454 
1.3118704726 1.4175000338 1.5022335207 6.1892828907 6.1070320098 6.035312792 5.9728339911 5.9183214791 5.8706119594 
5.8286879411 5.7916808611 5.7588591896 0.093902416448 0.17615329733 0.2478725152 0.31035131605 0.36486382811 0.41257334776 
0.45449736604 0.4915044461 0.52432611754 3.3194739936 3.5259796137 3.7479044707 3.9648280105 4.1588146215 4.321561399 
4.4534631262 4.5590926874 4.6438261743 2.9637113136 2.7572056934 2.5352808365 2.3183572967 2.1243706857 1.9616239082 
1.829722181 1.7240926197 1.6393591329 3.23549507 3.3177459509 3.3894651688 3.4519439696 3.5064564817 3.5541660013 
3.5960900196 3.6330970997 3.6659187711 3.0476902371 2.9654393563 2.8937201384 2.8312413375 2.7767288255 2.7290193058 
2.6870952876 2.6500882075 2.617266536 6.2831853072 6.2831853072 6.2831853072 6.2831853072 3.1415926536 3.1415926536 
3.1415926536 3.1415926536 3.1415926536 6.1053039672 5.898798347 5.6768734901 5.4599499503 5.2659633393 5.1032165617 
4.9713148346 4.8656852733 4.7809517865 0.17788134 0.38438696014 0.60631181711 0.82323535693 1.0172219679 1.1799687454 
1.3118704726 1.4175000338 1.5022335207 6.1892828907 6.1070320098 6.035312792 5.9728339911 5.9183214791 5.8706119594 
5.8286879411 5.7916808611 5.7588591896 0.093902416448 0.17615329733 0.2478725152 0.31035131605 0.36486382811 0.41257334776 
0.45449736604 0.4915044461 0.52432611754 3.3194739936 3.5259796137 3.7479044707 3.9648280105 4.1588146215 4.321561399 
4.4534631262 4.5590926874 4.6438261743 2.9637113136 2.7572056934 2.5352808365 2.3183572967 2.1243706857 1.9616239082 
1.829722181 1.7240926197 1.6393591329 3.23549507 3.3177459509 3.3894651688 3.4519439696 3.5064564817 3.5541660013 
3.5960900196 3.6330970997 3.6659187711 3.0476902371 2.9654393563 2.8937201384 2.8312413375 2.7767288255 2.7290193058 
2.6870952876 2.6500882075 2.617266536 4.7123889804 4.7123889804 4.7123889804 4.7123889804 4.7123889804 4.7123889804 
4.7123889804 4.7123889804 4.7123889804 4.6087898617 4.4991390697 4.3857031936 4.2712800401 4.1588146215 4.0509635631 
3.94975894 3.8564636551 3.7716124825 4.8159880991 4.9256388911 5.0390747672 5.1534979207 5.2659633393 5.3738143976 
5.4750190208 5.5683143056 5.6531654782 4.6087898617 4.4991390697 4.3857031936 4.2712800401 4.1588146215 4.0509635631 
3.94975894 3.8564636551 3.7716124825 4.8159880991 4.9256388911 5.0390747672 5.1534979207 5.2659633393 5.3738143976 
5.4750190208 5.5683143056 5.6531654782 1.5707963268 1.5707963268 1.5707963268 1.5707963268 1.5707963268 1.5707963268 
1.5707963268 1.5707963268 1.5707963268 1.6743954455 1.7840462375 1.8974821136 2.0119052671 2.1243706857 2.232221744 
2.3334263672 2.426721652 2.5115728246 1.4671972081 1.3575464161 1.24411054 1.1296873865 1.0172219679 0.90937090954 
0.80816628637 0.71487100155 0.63001982895 1.6743954455 1.7840462375 1.8974821136 2.0119052671 2.1243706857 2.232221744 
2.3334263672 2.426721652 2.5115728246 1.4671972081 1.3575464161 1.24411054 1.1296873865 1.0172219679 0.90937090954 
0.80816628637 0.71487100155 0.63001982895 3.6007720849 3.4966939854 3.3839471039 3.2645756454 3.1415926536 3.0186096618 
2.8992382033 2.7864913217 2.6824132222 5.8240058758 5.9280839753 6.0408308569 6.1602023154 6.2831853072 0.12298299178 
0.2423544503 0.35510133185 0.45917943135 6.0560271438 5.7885595667 5.9702140275 5.5125918794 5.6029703303 5.7885595667 
5.2659633393 5.2659633393 5.2659633393 5.2659633393 5.0674903122 5.0120975802 4.9155579264 4.7123889804 4.1588146215 
4.9155579264 4.8353719722 4.7123889804 4.5092200343 4.1588146215 3.6362183941 4.8004512023 4.7123889804 4.5894059886 
4.4126803806 4.1588146215 3.8218076305 3.4545639333 4.7123889804 4.6243267584 4.5092200343 4.3572876485 4.1588146215 
3.9121860814 3.6362183941 3.368750817 6.0174235957 5.9434319871 5.8263323547 5.8809213739 5.7674481418 5.6279784266 
5.8278025282 5.718968232 5.5891129425 5.4372443565 5.7823484065 5.678536687 5.5575666702 5.4192596322 5.2659633393 
5.743164462 5.6444075337 5.5314983644 5.4046708639 5.2659633393 5.1195510325 5.7091357773 5.6152775188 5.5096229709 
5.3926039573 5.2659633393 5.1329233157 4.9978930058 5.6793730533 5.5901633916 5.4910209005 5.3824597928 5.2659633393 
5.1440684722 5.0201624502 4.8979782167 5.5683143056 5.4750190208 5.4750190208 5.3738143976 5.3738143976 5.3738143976 
5.2659633393 5.2659633393 5.2659633393 5.2659633393 5.1534979207 5.1534979207 5.1534979207 5.1534979207 5.1534979207 
5.0390747672 5.0390747672 5.0390747672 5.0390747672 5.0390747672 5.0390747672 4.9256388911 4.9256388911 4.9256388911 
4.9256388911 4.9256388911 4.9256388911 4.9256388911 4.8159880991 4.8159880991 4.8159880991 4.8159880991 4.8159880991 
4.8159880991 4.8159880991 4.8159880991 4.6087898617 4.6087898617 4.4991390697 4.6087898617 4.4991390697 4.3857031936 
4.6087898617 4.4991390697 4.3857031936 4.2712800401 4.6087898617 4.4991390697 4.3857031936 4.2712800401 4.1588146215 
4.6087898617 4.4991390697 4.3857031936 4.2712800401 4.1588146215 4.0509635631 4.6087898617 4.4991390697 4.3857031936 
4.2712800401 4.1588146215 4.0509635631 3.94975894 4.6087898617 4.4991390697 4.3857031936 4.2712800401 4.1588146215 
4.0509635631 3.94975894 3.8564636551 4.526799744 4.4046155105 4.426884955 4.2807094886 4.2918546451 4.3052269283 
4.1588146215 4.1588146215 4.1588146215 4.1588146215 4.042318168 4.0321740035 4.0201070968 4.0055183285 3.9875336042 
3.9337570603 3.9151549899 3.8932795963 3.8672112905 3.8356650183 3.7967995342 3.8346145692 3.809500442 3.7803704271 
3.7462412737 3.7058097288 3.657329819 3.5984456061 3.7454049075 3.7156421835 3.6816134988 3.6424295543 3.5969754326 
3.5438565869 3.4813459737 3.4073543651 3.5642842451 3.4524645613 3.5233842518 3.3320300872 3.403123212 3.4773852225 
3.20576226 3.2746326772 3.348015857 3.4255060145 3.0774230472 3.1415926536 3.2112816139 3.2864685043 3.3668817272 
2.95115522 3.00855263 3.0719036933 3.1415926536 3.2178377658 3.3005964304 2.8307207459 2.8800620952 2.9351694502 
2.9967168029 3.0653475414 3.1415926536 3.225752376 2.718901062 2.7598010554 2.8058000847 2.8576792927 2.91630358 
2.9825888767 3.0574329311 3.1415926536 3.5642842451 3.5233842518 3.4524645613 3.4773852225 3.403123212 3.3320300872 
3.4255060145 3.348015857 3.2746326772 3.20576226 3.3668817272 3.2864685043 3.2112816139 3.1415926536 3.0774230472 
3.3005964304 3.2178377658 3.1415926536 3.0719036933 3.00855263 2.95115522 3.225752376 3.1415926536 3.0653475414 
2.9967168029 2.9351694502 2.8800620952 2.8307207459 3.1415926536 3.0574329311 2.9825888767 2.91630358 2.8576792927 
2.8058000847 2.7598010554 2.718901062 4.526799744 4.426884955 4.4046155105 4.3052269283 4.2918546451 4.2807094886 
4.1588146215 4.1588146215 4.1588146215 4.1588146215 3.9875336042 4.0055183285 4.0201070968 4.0321740035 4.042318168 
3.7967995342 3.8356650183 3.8672112905 3.8932795963 3.9151549899 3.9337570603 3.5984456061 3.657329819 3.7058097288 
3.7462412737 3.7803704271 3.809500442 3.8346145692 3.4073543651 3.4813459737 3.5438565869 3.5969754326 3.6424295543 
3.6816134988 3.7156421835 3.7454049075 4.7123889804 4.8004512023 4.6243267584 4.9155579264 4.7123889804 4.5092200343 
5.0674903122 4.8353719722 4.5894059886 4.3572876485 5.2659633393 5.0120975802 4.7123889804 4.4126803806 4.1588146215 
5.5125918794 5.2659633393 4.9155579264 4.5092200343 4.1588146215 3.9121860814 5.7885595667 5.6029703303 5.2659633393 
4.7123889804 4.1588146215 3.8218076305 3.6362183941 6.0560271438 5.9702140275 5.7885595667 5.2659633393 4.1588146215 
3.6362183941 3.4545639333 3.368750817 0.22715816343 0.49462574053 0.3129712797 0.77059342779 0.68021497688 0.49462574053 
1.0172219679 1.0172219679 1.0172219679 1.0172219679 1.2156949949 1.271087727 1.3676273807 1.5707963268 2.1243706857 
1.3676273807 1.447813335 1.5707963268 1.7739652728 2.1243706857 2.6469669131 1.4827341049 1.5707963268 1.6937793186 
1.8705049266 2.1243706857 2.4613776767 2.8286213739 1.5707963268 1.6588585487 1.7739652728 1.9258976586 2.1243706857 
2.3709992258 2.6469669131 2.9144344902 1.7563855631 1.8785697967 1.8563003522 2.0024758186 1.9913306621 1.9779583789 
2.1243706857 2.1243706857 2.1243706857 2.1243706857 2.2408671392 2.2510113037 2.2630782103 2.2776669786 2.295651703 
2.3494282469 2.3680303173 2.3899057108 2.4159740166 2.4475202889 2.486385773 2.448570738 2.4736848652 2.5028148801 
2.5369440334 2.5773755784 2.6258554882 2.6847397011 2.5377803997 2.5675431237 2.6015718084 2.6407557529 2.6862098746 
2.7393287203 2.8018393335 2.8758309421 1.6743954455 1.6743954455 1.7840462375 1.6743954455 1.7840462375 1.8974821136 
1.6743954455 1.7840462375 1.8974821136 2.0119052671 1.6743954455 1.7840462375 1.8974821136 2.0119052671 2.1243706857 
1.6743954455 1.7840462375 1.8974821136 2.0119052671 2.1243706857 2.232221744 1.6743954455 1.7840462375 1.8974821136 
2.0119052671 2.1243706857 2.232221744 2.3334263672 1.6743954455 1.7840462375 1.8974821136 2.0119052671 2.1243706857 
2.232221744 2.3334263672 2.426721652 1.4671972081 1.3575464161 1.4671972081 1.24411054 1.3575464161 1.4671972081 
1.1296873865 1.24411054 1.3575464161 1.4671972081 1.0172219679 1.1296873865 1.24411054 1.3575464161 1.4671972081 
0.90937090954 1.0172219679 1.1296873865 1.24411054 1.3575464161 1.4671972081 0.80816628637 0.90937090954 1.0172219679 
1.1296873865 1.24411054 1.3575464161 1.4671972081 0.71487100155 0.80816628637 0.90937090954 1.0172219679 1.1296873865 
1.24411054 1.3575464161 1.4671972081 0.60381225391 0.57404952988 0.69302191562 0.54002084522 0.66790778838 0.79216440667 
0.50083690068 0.63877777351 0.77356233629 0.90072551443 0.45538277901 0.60464862014 0.75168694275 0.89058134991 1.0172219679 
0.40226393329 0.56421707518 0.72561863695 0.87851444325 1.0172219679 1.139116835 0.33975332011 0.51573716537 0.69407236469 
0.86392567495 1.0172219679 1.1502619915 1.2630228569 0.26576171152 0.45685295248 0.6552068806 0.84594095064 1.0172219679 
1.1636342747 1.2852923014 1.3852070904 0.22715816343 0.3129712797 0.49462574053 0.49462574053 0.68021497688 0.77059342779 
1.0172219679 1.0172219679 1.0172219679 1.0172219679 2.1243706857 1.5707963268 1.3676273807 1.271087727 1.2156949949 
2.6469669131 2.1243706857 1.7739652728 1.5707963268 1.447813335 1.3676273807 2.8286213739 2.4613776767 2.1243706857 
1.8705049266 1.6937793186 1.5707963268 1.4827341049 2.9144344902 2.6469669131 2.3709992258 2.1243706857 1.9258976586 
1.7739652728 1.6588585487 1.5707963268 1.7563855631 1.8563003522 1.8785697967 1.9779583789 1.9913306621 2.0024758186 
2.1243706857 2.1243706857 2.1243706857 2.1243706857 2.295651703 2.2776669786 2.2630782103 2.2510113037 2.2408671392 
2.486385773 2.4475202889 2.4159740166 2.3899057108 2.3680303173 2.3494282469 2.6847397011 2.6258554882 2.5773755784 
2.5369440334 2.5028148801 2.4736848652 2.448570738 2.8758309421 2.8018393335 2.7393287203 2.6862098746 2.6407557529 
2.6015718084 2.5675431237 2.5377803997 5.8604937156 5.901393709 5.9723133995 5.9473927383 6.0216547488 6.0927478736 
5.9992719463 6.0767621038 6.1501452836 6.2190157008 6.0578962336 6.1383094565 6.2134963469 0 0.064169606361 
6.1241815303 6.206940195 6.2831853072 0.069688960264 0.13304002361 0.19043743361 6.1990255847 0 0.07624511221 
0.14487585072 0.20642320337 0.26153055843 0.3108719077 0 0.084159722458 0.15900377685 0.22528907359 0.28391336087 
0.3357925689 0.38179159818 0.42269159155 5.8604937156 5.9723133995 5.901393709 6.0927478736 6.0216547488 5.9473927383 
6.2190157008 6.1501452836 6.0767621038 5.9992719463 0.064169606361 0 6.2134963469 6.1383094565 6.0578962336 
0.19043743361 0.13304002361 0.069688960264 6.2831853072 6.206940195 6.1241815303 0.3108719077 0.26153055843 0.20642320337 
0.14487585072 0.07624511221 6.2831853072 6.1990255847 0.42269159155 0.38179159818 0.3357925689 0.28391336087 0.22528907359 
0.15900377685 0.084159722458 0 5.6793730533 5.7091357773 5.5901633916 5.743164462 5.6152775188 5.4910209005 
5.7823484065 5.6444075337 5.5096229709 5.3824597928 5.8278025282 5.678536687 5.5314983644 5.3926039573 5.2659633393 
5.8809213739 5.718968232 5.5575666702 5.4046708639 5.2659633393 5.1440684722 5.9434319871 5.7674481418 5.5891129425 
5.4192596322 5.2659633393 5.1329233157 5.0201624502 6.0174235957 5.8263323547 5.6279784266 5.4372443565 5.2659633393 
5.1195510325 4.9978930058 4.8979782167 1.3852070904 1.2852923014 1.2630228569 1.1636342747 1.1502619915 1.139116835 
1.0172219679 1.0172219679 1.0172219679 1.0172219679 0.84594095064 0.86392567495 0.87851444325 0.89058134991 0.90072551443 
0.6552068806 0.69407236469 0.72561863695 0.75168694275 0.77356233629 0.79216440667 0.45685295248 0.51573716537 0.56421707518 
0.60464862014 0.63877777351 0.66790778838 0.69302191562 0.26576171152 0.33975332011 0.40226393329 0.45538277901 0.50083690068 
0.54002084522 0.57404952988 0.60381225391 
_paraPhiHalf 1 1002 double
0 3.1415926536 0 3.1415926536 1.5707963268 1.5707963268 1.5707963268 1.5707963268 2.5880182947 
0.5535743589 2.5880182947 0.5535743589 0 0 0 0 3.1415926536 3.1415926536 
3.1415926536 3.1415926536 3.1415926536 0.17788134 0.38438696014 0.60631181711 0.82323535693 1.0172219679 1.1799687454 
1.3118704726 1.4175000338 1.5022335207 0.17788134 0.38438696014 0.60631181711 0.82323535693 1.0172219679 1.1799687454 
1.3118704726 1.4175000338 1.5022335207 0.093902416448 0.17615329733 0.2478725152 0.31035131605 0.36486382811 0.41257334776 
0.45449736604 0.4915044461 0.52432611754 0.093902416448 0.17615329733 0.2478725152 0.31035131605 0.36486382811 0.41257334776 
0.45449736604 0.4915044461 0.52432611754 2.9637113136 2.7572056934 2.5352808365 2.3183572967 2.1243706857 1.9616239082 
1.829722181 1.7240926197 1.6393591329 2.9637113136 2.7572056934 2.5352808365 2.3183572967 2.1243706857 1.9616239082 
1.829722181 1.7240926197 1.6393591329 3.0476902371 2.9654393563 2.8937201384 2.8312413375 2.7767288255 2.7290193058 
2.6870952876 2.6500882075 2.617266536 3.0476902371 2.9654393563 2.8937201384 2.8312413375 2.7767288255 2.7290193058 
2.6870952876 2.6500882075 2.617266536 0 0 0 0 3.1415926536 3.1415926536 
3.1415926536 3.1415926536 3.1415926536 0.17788134 0.38438696014 0.60631181711 0.82323535693 1.0172219679 1.1799687454 
1.3118704726 1.4175000338 1.5022335207 0.17788134 0.38438696014 0.60631181711 0.82323535693 1.0172219679 1.1799687454 
1.3118704726 1.4175000338 1.5022335207 0.093902416448 0.17615329733 0.2478725152 0.31035131605 0.36486382811 0.41257334776 
0.45449736604 0.4915044461 0.52432611754 0.093902416448 0.17615329733 0.2478725152 0.31035131605 0.36486382811 0.41257334776 
0.45449736604 0.4915044461 0.52432611754 2.9637113136 2.7572056934 2.5352808365 2.3183572967 2.1243706857 1.9616239082 
1.829722181 1.7240926197 1.6393591329 2.9637113136 2.7572056934 2.5352808365 2.3183572967 2.1243706857 1.9616239082 
1.829722181 1.7240926197 1.6393591329 3.0476902371 2.9654393563 2.8937201384 2.8312413375 2.7767288255 2.7290193058 
2.6870952876 2.6500882075 2.617266536 3.0476902371 2.9654393563 2.8937201384 2.8312413375 2.7767288255 2.7290193058 
2.6870952876 2.6500882075 2.617266536 1.5707963268 1.5707963268 1.5707963268 1.5707963268 1.5707963268 1.5707963268 
1.5707963268 1.5707963268 1.5707963268 1.6743954455 1.7840462375 1.8974821136 2.0119052671 2.1243706857 2.232221744 
2.3334263672 2.426721652 2.5115728246 1.4671972081 1.3575464161 1.24411054 1.1296873865 1.0172219679 0.90937090954 
0.80816628637 0.71487100155 0.63001982895 1.6743954455 1.7840462375 1.8974821136 2.0119052671 2.1243706857 2.232221744 
2.3334263672 2.426721652 2.5115728246 1.4671972081 1.3575464161 1.24411054 1.1296873865 1.0172219679 0.90937090954 
0.80816628637 0.71487100155 0.63001982895 1.5707963268 1.5707963268 1.5707963268 1.5707963268 1.5707963268 1.5707963268 
1.5707963268 1.5707963268 1.5707963268 1.6743954455 1.7840462375 1.8974821136 2.0119052671 2.1243706857 2.232221744 
2.3334263672 2.426721652 2.5115728246 1.4671972081 1.3575464161 1.24411054 1.1296873865 1.0172219679 0.90937090954 
0.80816628637 0.71487100155 0.63001982895 1.6743954455 1.7840462375 1.8974821136 2.0119052671 2.1243706857 2.232221744 
2.3334263672 2.426721652 2.5115728246 1.4671972081 1.3575464161 1.24411054 1.1296873865 1.0172219679 0.90937090954 
0.80816628637 0.71487100155 0.63001982895 2.6824132222 2.7864913217 2.8992382033 3.0186096618 3.1415926536 3.0186096618 
2.8992382033 2.7864913217 2.6824132222 0.45917943135 0.35510133185 0.2423544503 0.12298299178 0 0.12298299178 
0.2423544503 0.35510133185 0.45917943135 0.22715816343 0.49462574053 0.3129712797 0.77059342779 0.68021497688 0.49462574053 
1.0172219679 1.0172219679 1.0172219679 1.0172219679 1.2156949949 1.271087727 1.3676273807 1.5707963268 2.1243706857 
1.3676273807 1.447813335 1.5707963268 1.7739652728 2.1243706857 2.6469669131 1.4827341049 1.5707963268 1.6937793186 
1.8705049266 2.1243706857 2.4613776767 2.8286213739 1.5707963268 1.6588585487 1.7739652728 1.9258976586 2.1243706857 
2.3709992258 2.6469669131 2.9144344902 0.26576171152 0.33975332011 0.45685295248 0.40226393329 0.51573716537 0.6552068806 
0.45538277901 0.56421707518 0.69407236469 0.84594095064 0.50083690068 0.60464862014 0.72561863695 0.86392567495 1.0172219679 
0.54002084522 0.63877777351 0.75168694275 0.87851444325 1.0172219679 1.1636342747 0.57404952988 0.66790778838 0.77356233629 
0.89058134991 1.0172219679 1.1502619915 1.2852923014 0.60381225391 0.69302191562 0.79216440667 0.90072551443 1.0172219679 
1.139116835 1.2630228569 1.3852070904 0.71487100155 0.80816628637 0.80816628637 0.90937090954 0.90937090954 0.90937090954 
1.0172219679 1.0172219679 1.0172219679 1.0172219679 1.1296873865 1.1296873865 1.1296873865 1.1296873865 1.1296873865 
1.24411054 1.24411054 1.24411054 1.24411054 1.24411054 1.24411054 1.3575464161 1.3575464161 1.3575464161 
1.3575464161 1.3575464161 1.3575464161 1.3575464161 1.4671972081 1.4671972081 1.4671972081 1.4671972081 1.4671972081 
1.4671972081 1.4671972081 1.4671972081 1.6743954455 1.6743954455 1.7840462375 1.6743954455 1.7840462375 1.8974821136 
1.6743954455 1.7840462375 1.8974821136 2.0119052671 1.6743954455 1.7840462375 1.8974821136 2.0119052671 2.1243706857 
1.6743954455 1.7840462375 1.8974821136 2.0119052671 2.1243706857 2.232221744 1.6743954455 1.7840462375 1.8974821136 
2.0119052671 2.1243706857 2.232221744 2.3334263672 1.6743954455 1.7840462375 1.8974821136 2.0119052671 2.1243706857 
2.232221744 2.3334263672 2.426721652 1.7563855631 1.8785697967 1.8563003522 2.0024758186 1.9913306621 1.9779583789 
2.1243706857 2.1243706857 2.1243706857 2.1243706857 2.2408671392 2.2510113037 2.2630782103 2.2776669786 2.295651703 
2.3494282469 2.3680303173 2.3899057108 2.4159740166 2.4475202889 2.486385773 2.448570738 2.4736848652 2.5028148801 
2.5369440334 2.5773755784 2.6258554882 2.6847397011 2.5377803997 2.5675431237 2.6015718084 2.6407557529 2.6862098746 
2.7393287203 2.8018393335 2.8758309421 2.718901062 2.8307207459 2.7598010554 2.95115522 2.8800620952 2.8058000847 
3.0774230472 3.00855263 2.9351694502 2.8576792927 3.0774230472 3.1415926536 3.0719036933 2.9967168029 2.91630358 
2.95115522 3.00855263 3.0719036933 3.1415926536 3.0653475414 2.9825888767 2.8307207459 2.8800620952 2.9351694502 
2.9967168029 3.0653475414 3.1415926536 3.0574329311 2.718901062 2.7598010554 2.8058000847 2.8576792927 2.91630358 
2.9825888767 3.0574329311 3.1415926536 2.718901062 2.7598010554 2.8307207459 2.8058000847 2.8800620952 2.95115522 
2.8576792927 2.9351694502 3.00855263 3.0774230472 2.91630358 2.9967168029 3.0719036933 3.1415926536 3.0774230472 
2.9825888767 3.0653475414 3.1415926536 3.0719036933 3.00855263 2.95115522 3.0574329311 3.1415926536 3.0653475414 