# vtk DataFile Version 5.1
vtk output
ASCII
DATASET POLYDATA
POINTS 1002 float
-10.3695 -0.00614516 -3.30012 10.7989 -0.837904 -2.7884 -9.71675 0.759381 3.57371 
9.73239 -0.800615 2.02375 -2.83062 2.08476 -1.96754 -2.21436 1.72412 1.48442 
-1.2314 -6.2433 -1.79929 -1.02698 -6.99839 2.10551 19.3038 7.62041 0.517078 
-15.3747 7.71016 0.500809 18.0773 -0.502709 0.162421 -15.3027 -4.0963 -0.28812 
-9.18559 -0.341491 -3.30322 -7.77819 -0.751532 -3.26315 -6.11378 -1.18456 -3.10083 
-4.07042 -1.63677 -2.84704 -1.49696 -2.1391 -2.68617 1.44909 -2.5033 -2.68605 
4.33733 -2.45507 -2.74375 6.87693 -2.03262 -2.80613 9.01237 -1.45663 -2.8427 
-10.0894 0.525951 -3.32452 -9.73455 1.0916 -3.33134 -9.26624 1.62533 -3.35455 
-8.63029 2.08824 -3.3649 -7.89544 2.57182 -3.27815 -7.13065 3.08523 -3.0741 
-6.2031 3.35158 -2.80638 -5.06295 3.15562 -2.52091 -3.89679 2.64033 -2.238 
-9.88137 -0.710237 -3.22846 -9.24426 -1.46326 -3.10354 -8.44307 -2.27856 -2.97028 
-7.50404 -3.06711 -2.82905 -6.45749 -3.74863 -2.64381 -5.3465 -4.37814 -2.44098 
-4.23965 -4.95739 -2.2453 -3.17644 -5.42947 -2.05128 -2.16601 -5.84199 -1.89535 
-11.3325 0.654554 -3.30516 -12.3624 1.43096 -3.27571 -13.4228 2.32389 -3.18421 
-14.3897 3.32622 -2.97508 -15.1501 4.38753 -2.63508 -15.6589 5.36964 -2.19552 
-15.8998 6.18636 -1.61693 -15.9022 6.87098 -0.882701 -15.7181 7.40672 -0.12997 
-11.2003 -0.178634 -3.25959 -12.0243 -0.419741 -3.18339 -12.8082 -0.71085 -3.05485 
-13.5547 -1.09329 -2.8668 -14.2101 -1.57945 -2.57327 -14.6754 -2.0649 -2.15677 
-15.0054 -2.55251 -1.71812 -15.27 -3.13786 -1.30074 -15.383 -3.71737 -0.828038 
10.3431 -0.598651 -2.79524 9.69257 -0.357305 -2.72751 8.76543 -0.107501 -2.6404 
7.54558 0.050296 -2.57824 6.15316 0.0437261 -2.46144 4.57414 0.0074158 -2.26249 
2.62385 0.133382 -2.10782 0.452646 0.512733 -2.05164 -1.45704 1.17644 -2.02378 
10.0793 -1.52575 -2.78684 9.1639 -2.28094 -2.74395 7.99313 -3.02439 -2.70057 
6.58797 -3.70283 -2.63266 5.10513 -4.33046 -2.48714 3.66734 -4.88575 -2.31171 
2.26353 -5.3211 -2.17128 0.921426 -5.66581 -2.04894 -0.255228 -5.9712 -1.92362 
12.2543 0.0290454 -2.64406 13.7778 1.04988 -2.42923 15.2816 2.18084 -2.27004 
16.6838 3.35194 -2.1306 17.955 4.51636 -1.79859 19.0045 5.67814 -1.35833 
19.6871 6.79011 -1.03682 19.9439 7.61249 -0.678828 19.7939 7.88452 -0.107356 
12.0569 -0.585977 -2.65176 13.3299 -0.320418 -2.47888 14.5937 -0.092014 -2.33327 
15.7499 0.0602496 -2.16813 16.7064 0.141593 -1.92708 17.5233 0.171637 -1.65053 
18.2188 0.150216 -1.30463 18.601 0.0515336 -0.821149 18.5269 -0.163456 -0.287334 
-8.57515 0.350516 3.59974 -7.21398 -0.197204 3.56337 -5.56656 -0.890072 3.43632 
-3.57989 -1.64228 3.15673 -1.30097 -2.25209 2.78702 1.12449 -2.48684 2.48227 
3.55241 -2.30699 2.27233 5.85037 -1.88551 2.1255 7.9158 -1.36904 2.04823 
-9.30864 1.20283 3.46331 -8.78521 1.65262 3.40826 -8.17698 2.0649 3.3252 
-7.50827 2.41033 3.12868 -6.74865 2.62753 2.88084 -5.89525 2.6517 2.63459 
-4.99602 2.52323 2.33764 -4.07415 2.31341 2.01284 -3.13914 2.03634 1.7323 
-9.35053 0.0846636 3.75469 -8.78849 -0.699807 3.86755 -7.97563 -1.64605 3.83639 
-6.95642 -2.70628 3.73306 -5.8722 -3.76599 3.60142 -4.81078 -4.70978 3.35719 
-3.75001 -5.47955 3.01938 -2.71289 -6.11566 2.70491 -1.79468 -6.63982 2.41983 
-10.5548 1.4224 3.41569 -11.4131 2.18989 3.25591 -12.2803 3.02181 3.08205 
-13.1045 3.84659 2.8343 -13.8275 4.64756 2.52802 -14.4337 5.4398 2.21502 
-14.9323 6.22109 1.86258 -15.2886 6.93277 1.44694 -15.4379 7.45383 0.99234 
-10.621 0.687711 3.58549 -11.638 0.571709 3.47719 -12.7814 0.364825 3.24389 
-13.9385 -0.0728895 2.91753 -14.9288 -0.761292 2.43056 -15.6211 -1.50676 1.82048 
-15.9569 -2.23702 1.27754 -15.957 -3.01339 0.786799 -15.7065 -3.70357 0.240268 
9.12857 -0.594195 2.03268 8.34246 -0.431167 2.0001 7.35711 -0.301695 1.93668 
6.16963 -0.20195 1.88468 4.80929 -0.123713 1.8628 3.33412 -0.0294398 1.82412 
1.8092 0.123031 1.72459 0.317559 0.426869 1.60998 -1.04532 0.975462 1.53629 
9.13893 -1.41592 2.03 8.40433 -2.07277 2.07523 7.49017 -2.76196 2.08885 
6.39526 -3.50269 2.03831 5.20992 -4.29652 2.04662 3.98642 -5.06234 2.17325 
2.66738 -5.71316 2.26548 1.30018 -6.24353 2.23785 0.0484139 -6.6702 2.16844 
11.1761 0.00782686 2.05386 12.6949 0.947046 2.10869 14.1588 1.94594 2.17254 
15.4992 3.01062 2.27403 16.7247 4.13628 2.33649 17.7414 5.14911 2.20647 
18.477 5.98598 1.91773 18.9968 6.76041 1.55749 19.2959 7.38015 1.08491 
11.1397 -0.562399 1.9916 12.6017 -0.301014 1.98507 14.0627 -0.0569244 2.0624 
15.366 0.106502 2.10762 16.3618 0.175615 1.93743 17.0803 0.154005 1.63173 
17.6377 0.0127879 1.35746 18.0508 -0.19293 1.06024 18.229 -0.357784 0.649573 
-2.89528 2.42992 -1.73225 -2.95876 2.79619 -1.45037 -2.94498 3.02529 -1.13597 
-2.80081 3.10047 -0.781988 -2.62122 3.10904 -0.380177 -2.53351 2.98419 0.0449154 
-2.49909 2.68049 0.478421 -2.42491 2.33414 0.899821 -2.31624 2.02626 1.24723 
-0.77746 1.10626 -1.73993 1.91556 0.761301 -1.54374 4.86866 1.25758 -1.4464 
7.70518 2.2588 -1.37761 10.4448 3.30805 -1.18286 13.0385 4.23147 -0.860137 
15.1939 5.10056 -0.522484 16.8884 6.04402 -0.194225 18.2645 6.97711 0.154513 
-4.35539 3.5544 -2.02164 -5.60569 5.03242 -1.98136 -6.98862 6.14349 -1.81996 
-8.51954 6.82541 -1.50927 -9.87685 7.22265 -1.10786 -11.1347 7.52331 -0.783274 
-12.4489 7.81706 -0.53678 -13.6466 8.01026 -0.217033 -14.6142 7.98276 0.171731 
-0.431079 1.06019 1.26484 1.78527 0.881994 1.04826 4.28944 1.28919 0.899838 
6.82792 2.0312 0.860676 9.31128 2.84931 0.861127 11.7666 3.71765 0.856239 
14.0986 4.66646 0.890667 16.1841 5.69754 0.914602 17.9454 6.7451 0.799602 
-3.79615 2.90773 1.59839 -5.2601 4.28293 1.7477 -6.63498 5.56611 1.93802 
-7.97793 6.67151 2.13407 -9.28885 7.5632 2.20876 -10.5712 8.05345 2.0339 
-11.8888 8.14654 1.65594 -13.2224 8.10561 1.24423 -14.4229 8.00265 0.873314 
-1.24362 -6.64222 -1.6558 -1.29096 -6.99553 -1.41732 -1.39307 -7.31804 -1.03143 
-1.55402 -7.71325 -0.553648 -1.7332 -8.05858 -0.074759 -1.82934 -8.0689 0.39944 
-1.75004 -7.80206 0.894878 -1.5172 -7.52907 1.38301 -1.24605 -7.29337 1.80027 
0.31179 -6.46088 -1.80001 2.0641 -6.5607 -1.78394 4.00332 -6.43103 -1.73003 
6.0619 -6.1852 -1.66913 8.09314 -5.95251 -1.62371 10.078 -5.37011 -1.48522 
12.2411 -4.09042 -1.15536 14.5746 -2.53429 -0.713502 16.6396 -1.30854 -0.266752 
-2.70954 -6.2469 -1.71095 -4.30196 -6.2348 -1.59961 -5.99755 -6.18386 -1.49417 
-7.66294 -6.10461 -1.40749 -9.22426 -6.01045 -1.26041 -10.7217 -5.78275 -1.01093 
-12.094 -5.37889 -0.771902 -13.2786 -4.97075 -0.617528 -14.3426 -4.5976 -0.47821 
0.428917 -7.0176 1.79617 2.2239 -6.86653 1.48854 4.3629 -6.56546 1.21962 
6.60927 -6.2007 0.997553 8.75399 -5.77487 0.849222 10.8379 -5.11158 0.769473 
12.887 -4.02917 0.652439 14.8363 -2.67592 0.465424 16.6124 -1.43781 0.293688 
-2.51197 -7.10914 2.24703 -4.13163 -7.19458 2.32369 -5.89214 -7.18135 2.26139 
-7.72996 -6.98687 2.07834 -9.58029 -6.64148 1.8067 -11.2812 -6.20235 1.43667 
-12.6258 -5.69892 1.00191 -13.6514 -5.18984 0.562213 -14.5317 -4.67682 0.133229 
20.4255 8.14342 0.511753 21.3006 8.11499 0.506602 22.0415 7.43556 0.545463 
22.656 6.3357 0.585522 22.7216 5.18464 0.54654 22.0404 4.06797 0.50155 
21.1206 2.82494 0.528484 20.3096 1.53174 0.508598 19.3715 0.426971 0.358064 
-16.2454 7.03952 0.370932 -16.9494 6.02286 0.141149 -17.412 4.80748 -0.0962119 
-17.6927 3.51792 -0.28337 -17.8648 2.14973 -0.480406 -17.869 0.750024 -0.665596 
-17.619 -0.629029 -0.706161 -17.0763 -1.98259 -0.591609 -16.262 -3.18487 -0.42864 
-8.79247 0.139275 -3.33446 -8.2846 0.659702 -3.34131 -7.26029 -0.310571 -3.26169 
-7.62883 1.11393 -3.34615 -6.60879 0.159583 -3.22272 -5.44924 -0.803375 -3.03328 
-6.87726 1.4592 -3.30616 -5.80821 0.498686 -3.15423 -4.60761 -0.461668 -2.93657 
-3.10976 -1.39855 -2.77052 -6.13499 1.81307 -3.16465 -4.90302 0.657725 -3.02942 
-3.51533 -0.298614 -2.79082 -1.86221 -1.21644 -2.66236 -0.0957175 -1.98337 -2.65356 
-5.26742 2.09339 -2.92511 -3.84705 0.741725 -2.84851 -2.15965 -0.302942 -2.62892 
-0.3169 -1.073 -2.50671 1.55288 -1.71999 -2.5569 3.13617 -2.17055 -2.66228 
-4.08054 2.01712 -2.62161 -2.48372 0.73401 -2.60475 -0.548362 -0.30874 -2.49067 
1.39239 -0.895619 -2.42273 3.24499 -1.26613 -2.4735 4.8314 -1.59178 -2.59522 
6.00576 -1.83535 -2.72576 -2.72681 1.60958 -2.3061 -0.941476 0.6126 -2.31351 
1.16094 -0.171914 -2.31223 3.10366 -0.554415 -2.38176 4.79981 -0.661302 -2.49058 
6.31086 -0.797719 -2.58023 7.51144 -1.0218 -2.68778 8.37411 -1.24208 -2.80046 
-11.0786 1.30326 -3.30416 -12.0985 2.17282 -3.26423 -10.7589 1.95851 -3.30568 
-13.0837 3.14195 -3.12351 -11.7388 2.91397 -3.23589 -10.3043 2.57729 -3.31607 
-13.957 4.21974 -2.7894 -12.5887 3.96349 -2.98328 -11.2032 3.65273 -3.16021 
-9.61775 3.17759 -3.26061 -14.6241 5.31839 -2.34593 -13.2978 5.0689 -2.52728 
-11.8783 4.74484 -2.7889 -10.3963 4.32329 -3.00093 -8.7465 3.7687 -3.08168 
-14.9741 6.28265 -1.87203 -13.7706 6.11885 -2.04931 -12.3517 5.77158 -2.27591 
-10.9101 5.32775 -2.57525 -9.34102 4.8085 -2.76996 -7.72818 4.21292 -2.82517 
-15.0228 7.05439 -1.26191 -13.9145 6.98495 -1.54861 -12.5631 6.68917 -1.74262 
-11.1773 6.24653 -2.01603 -9.70921 5.6999 -2.335 -8.0667 5.10187 -2.51047 
-6.54329 4.32142 -2.55614 -14.8873 7.63364 -0.522946 -13.8378 7.61 -0.908493 
-12.5492 7.37788 -1.16038 -11.2064 7.03206 -1.38807 -9.87807 6.5832 -1.74266 
-8.32515 5.99639 -2.07826 -6.72764 5.20737 -2.24701 -5.36047 4.06066 -2.28943 
-13.5391 8.21119 0.529653 -12.2298 8.32615 0.898088 -12.4448 8.16297 0.153982 
-10.8272 8.38952 1.30777 -11.0663 8.25203 0.510525 -11.1523 7.88351 -0.178851 
-9.46447 8.16892 1.68143 -9.63763 8.25658 0.889454 -9.76298 7.89564 0.105673 
-9.82276 7.55977 -0.520378 -8.13089 7.44292 1.84132 -8.22654 7.93612 1.25429 
-8.31948 7.84263 0.440677 -8.41694 7.52828 -0.30367 -8.49995 7.28636 -0.92156 
-6.78317 6.308 1.72949 -6.84371 7.07058 1.38155 -6.8724 7.44811 0.766759 
-6.95131 7.33022 0.00858011 -7.04799 7.11379 -0.689926 -7.05536 6.78409 -1.30089 
-5.41356 4.89651 1.50957 -5.49528 5.62439 1.2128 -5.50371 6.29034 0.791313 
[...]
POINT_DATA 1002
FIELD FieldData 4
_paraPhi 1 1002 double
6.2831853072 3.1415926536 6.2831853072 3.1415926536 4.7123889804 4.7123889804 1.5707963268 1.5707963268 3.6951670125 
5.7296109483 2.5880182947 0.5535743589 6.2831853072 6.2831853072 6.2831853072 6.2831853072 3.1415926536 3.1415926536 
3.1415926536 3.1415926536 3.1415926536 6.1053039672 5.898798347 5.6768734901 5.4599499503 5.2659633393 5.1032165617 
4.9713148346 4.8656852733 4.7809517865 0.17788134 0.38438696014 0.60631181711 0.82323535693 1.0172219679 1.1799687454 
1.3118704726 1.4175000338 1.5022335207 6.1892828907 6.1070320098 6.035312792 5.9728339911 5.9183214791 5.8706119594 
5.8286879411 5.7916808611 5.7588591896 0.093902416448 0.17615329733 0.2478725152 0.31035131605 0.36486382811 0.41257334776 
0.45449736604 0.4915044461 0.52432611754 3.3194739936 3.5259796137 3.7479044707 3.9648280105 4.1588146215 4.321561399 
4.4534631262 4.5590926874 4.6438261743 2.9637113136 2.7572056934 2.5352808365 2.3183572967 2.1243706857 1.9616239082 
1.829722181 1.7240926197 1.6393591329 3.23549507 3.3177459509 3.3894651688 3.4519439696 3.5064564817 3.5541660013 
3.5960900196 3.6330970997 3.6659187711 3.0476902371 2.9654393563 2.8937201384 2.8312413375 2.7767288255 2.7290193058 
2.6870952876 2.6500882075 2.617266536 6.2831853072 6.2831853072 6.2831853072 6.2831853072 3.1415926536 3.1415926536 
3.1415926536 3.1415926536 3.1415926536 6.1053039672 5.898798347 5.6768734901 5.4599499503 5.2659633393 5.1032165617 
4.9713148346 4.8656852733 4.7809517865 0.17788134 0.38438696014 0.60631181711 0.82323535693 1.0172219679 1.1799687454 
1.3118704726 1.4175000338 1.5022335207 6.1892828907 6.1070320098 6.035312792 5.9728339911 5.9183214791 5.8706119594 
5.8286879411 5.7916808611 5.7588591896 0.093902416448 0.17615329733 0.2478725152 0.31035131605 0.36486382811 0.41257334776 
0.45449736604 0.4915044461 0.52432611754 3.3194739936 3.5259796137 3.7479044707 3.9648280105 4.1588146215 4.321561399 
4.4534631262 4.5590926874 4.6438261743 2.9637113136 2.7572056934 2.5352808365 2.3183572967 2.1243706857 1.9616239082 
1.829722181 1.7240926197 1.6393591329 3.23549507 3.3177459509 3.3894651688 3.4519439696 3.5064564817 3.5541660013 
3.5960900196 3.6330970997 3.6659187711 3.0476902371 2.9654393563 2.8937201384 2.8312413375 2.7767288255 2.7290193058 
2.6870952876 2.6500882075 2.617266536 4.7123889804 4.7123889804 4.7123889804 4.7123889804 4.7123889804 4.7123889804 
4.7123889804 4.7123889804 4.7123889804 4.6087898617 4.4991390697 4.3857031936 4.2712800401 4.1588146215 4.0509635631 
3.94975894 3.8564636551 3.7716124825 4.8159880991 4.9256388911 5.0390747672 5.1534979207 5.2659633393 5.3738143976 
5.4750190208 5.5683143056 5.6531654782 4.6087898617 4.4991390697 4.3857031936 4.2712800401 4.1588146215 4.0509635631 
3.94975894 3.8564636551 3.7716124825 4.8159880991 4.9256388911 5.0390747672 5.1534979207 5.2659633393 5.3738143976 
5.4750190208 5.5683143056 5.6531654782 1.5707963268 1.5707963268 1.5707963268 1.5707963268 1.5707963268 1.5707963268 
1.5707963268 1.5707963268 1.5707963268 1.6743954455 1.7840462375 1.8974821136 2.0119052671 2.1243706857 2.232221744 
2.3334263672 2.426721652 2.5115728246 1.4671972081 1.3575464161 1.24411054 1.1296873865 1.0172219679 0.90937090954 
0.80816628637 0.71487100155 0.63001982895 1.6743954455 1.7840462375 1.8974821136 2.0119052671 2.1243706857 2.232221744 
2.3334263672 2.426721652 2.5115728246 1.4671972081 1.3575464161 1.24411054 1.1296873865 1.0172219679 0.90937090954 
0.80816628637 0.71487100155 0.63001982895 3.6007720849 3.4966939854 3.3839471039 3.2645756454 3.1415926536 3.0186096618 
2.8992382033 2.7864913217 2.6824132222 5.8240058758 5.9280839753 6.0408308569 6.1602023154 6.2831853072 0.12298299178 
0.2423544503 0.35510133185 0.45917943135 6.0560271438 5.7885595667 5.9702140275 5.5125918794 5.6029703303 5.7885595667 
5.2659633393 5.2659633393 5.2659633393 5.2659633393 5.0674903122 5.0120975802 4.9155579264 4.7123889804 4.1588146215 
4.9155579264 4.8353719722 4.7123889804 4.5092200343 4.1588146215 3.6362183941 4.8004512023 4.7123889804 4.5894059886 
4.4126803806 4.1588146215 3.8218076305 3.4545639333 4.7123889804 4.6243267584 4.5092200343 4.3572876485 4.1588146215 
3.9121860814 3.6362183941 3.368750817 6.0174235957 5.9434319871 5.8263323547 5.8809213739 5.7674481418 5.6279784266 
5.8278025282 5.718968232 5.5891129425 5.4372443565 5.7823484065 5.678536687 5.5575666702 5.4192596322 5.2659633393 
5.743164462 5.6444075337 5.5314983644 5.4046708639 5.2659633393 5.1195510325 5.7091357773 5.6152775188 5.5096229709 
5.3926039573 5.2659633393 5.1329233157 4.9978930058 5.6793730533 5.5901633916 5.4910209005 5.3824597928 5.2659633393 
5.1440684722 5.0201624502 4.8979782167 5.5683143056 5.4750190208 5.4750190208 5.3738143976 5.3738143976 5.3738143976 
5.2659633393 5.2659633393 5.2659633393 5.2659633393 5.1534979207 5.1534979207 5.1534979207 5.1534979207 5.1534979207 
5.0390747672 5.0390747672 5.0390747672 5.0390747672 5.0390747672 5.0390747672 4.9256388911 4.9256388911 4.9256388911 
4.9256388911 4.9256388911 4.9256388911 4.9256388911 4.8159880991 4.8159880991 4.8159880991 4.8159880991 4.8159880991 
4.8159880991 4.8159880991 4.8159880991 4.6087898617 4.6087898617 4.4991390697 4.6087898617 4.4991390697 4.3857031936 
4.6087898617 4.4991390697 4.3857031936 4.2712800401 4.6087898617 4.4991390697 4.3857031936 4.2712800401 4.1588146215 
4.6087898617 4.4991390697 4.3857031936 4.2712800401 4.1588146215 4.0509635631 4.6087898617 4.4991390697 4.3857031936 
4.2712800401 4.1588146215 4.0509635631 3.94975894 4.6087898617 4.4991390697 4.3857031936 4.2712800401 4.1588146215 
4.0509635631 3.94975894 3.8564636551 4.526799744 4.4046155105 4.426884955 4.2807094886 4.2918546451 4.3052269283 
4.1588146215 4.1588146215 4.1588146215 4.1588146215 4.042318168 4.0321740035 4.0201070968 4.0055183285 3.9875336042 
3.9337570603 3.9151549899 3.8932795963 3.8672112905 3.8356650183 3.7967995342 3.8346145692 3.809500442 3.7803704271 
3.7462412737 3.7058097288 3.657329819 3.5984456061 3.7454049075 3.7156421835 3.6816134988 3.6424295543 3.5969754326 
3.5438565869 3.4813459737 3.4073543651 3.5642842451 3.4524645613 3.5233842518 3.3320300872 3.403123212 3.4773852225 
3.20576226 3.2746326772 3.348015857 3.4255060145 3.0774230472 3.1415926536 3.2112816139 3.2864685043 3.3668817272 
2.95115522 3.00855263 3.0719036933 3.1415926536 3.2178377658 3.3005964304 2.8307207459 2.8800620952 2.9351694502 
2.9967168029 3.0653475414 3.1415926536 3.225752376 2.718901062 2.7598010554 2.8058000847 2.8576792927 2.91630358 
2.9825888767 3.0574329311 3.1415926536 3.5642842451 3.5233842518 3.4524645613 3.4773852225 3.403123212 3.3320300872 
3.4255060145 3.348015857 3.2746326772 3.20576226 3.3668817272 3.2864685043 3.2112816139 3.1415926536 3.0774230472 
3.3005964304 3.2178377658 3.1415926536 3.0719036933 3.00855263 2.95115522 3.225752376 3.1415926536 3.0653475414 
2.9967168029 2.9351694502 2.8800620952 2.8307207459 3.1415926536 3.0574329311 2.9825888767 2.91630358 2.8576792927 
2.8058000847 2.7598010554 2.718901062 4.526799744 4.426884955 4.4046155105 4.3052269283 4.2918546451 4.2807094886 
4.1588146215 4.1588146215 4.1588146215 4.1588146215 3.9875336042 4.0055183285 4.0201070968 4.0321740035 4.042318168 
3.7967995342 3.8356650183 3.8672112905 3.8932795963 3.9151549899 3.9337570603 3.5984456061 3.657329819 3.7058097288 
3.7462412737 3.7803704271 3.809500442 3.8346145692 3.4073543651 3.4813459737 3.5438565869 3.5969754326 3.6424295543 
3.6816134988 3.7156421835 3.7454049075 4.7123889804 4.8004512023 4.6243267584 4.9155579264 4.7123889804 4.5092200343 
5.0674903122 4.8353719722 4.5894059886 4.3572876485 5.2659633393 5.0120975802 4.7123889804 4.4126803806 4.1588146215 
5.5125918794 5.2659633393 4.9155579264 4.5092200343 4.1588146215 3.9121860814 5.7885595667 5.6029703303 5.2659633393 
4.7123889804 4.1588146215 3.8218076305 3.6362183941 6.0560271438 5.9702140275 5.7885595667 5.2659633393 4.1588146215 
3.6362183941 3.4545639333 3.368750817 0.22715816343 0.49462574053 0.3129712797 0.77059342779 0.68021497688 0.49462574053 
1.0172219679 1.0172219679 1.0172219679 1.0172219679 1.2156949949 1.271087727 1.3676273807 1.5707963268 2.1243706857 
1.3676273807 1.447813335 1.5707963268 1.7739652728 2.1243706857 2.6469669131 1.4827341049 1.5707963268 1.6937793186 
1.8705049266 2.1243706857 2.4613776767 2.8286213739 1.5707963268 1.6588585487 1.7739652728 1.9258976586 2.1243706857 
2.3709992258 2.6469669131 2.9144344902 1.7563855631 1.8785697967 1.8563003522 2.0024758186 1.9913306621 1.9779583789 
2.1243706857 2.1243706857 2.1243706857 2.1243706857 2.2408671392 2.2510113037 2.2630782103 2.2776669786 2.295651703 
2.3494282469 2.3680303173 2.3899057108 2.4159740166 2.4475202889 2.486385773 2.448570738 2.4736848652 2.5028148801 
2.5369440334 2.5773755784 2.6258554882 2.6847397011 2.5377803997 2.5675431237 2.6015718084 2.6407557529 2.6862098746 
2.7393287203 2.8018393335 2.8758309421 1.6743954455 1.6743954455 1.7840462375 1.6743954455 1.7840462375 1.8974821136 
1.6743954455 1.7840462375 1.8974821136 2.0119052671 1.6743954455 1.7840462375 1.8974821136 2.0119052671 2.1243706857 
1.6743954455 1.7840462375 1.8974821136 2.0119052671 2.1243706857 2.232221744 1.6743954455 1.7840462375 1.8974821136 
2.0119052671 2.1243706857 2.232221744 2.3334263672 1.6743954455 1.7840462375 1.8974821136 2.0119052671 2.1243706857 
2.232221744 2.3334263672 2.426721652 1.4671972081 1.3575464161 1.4671972081 1.24411054 1.3575464161 1.4671972081 
1.1296873865 1.24411054 1.3575464161 1.4671972081 1.0172219679 1.1296873865 1.24411054 1.3575464161 1.4671972081 
0.90937090954 1.0172219679 1.1296873865 1.24411054 1.3575464161 1.4671972081 0.80816628637 0.90937090954 1.0172219679 
1.1296873865 1.24411054 1.3575464161 1.4671972081 0.71487100155 0.80816628637 0.90937090954 1.0172219679 1.1296873865 
1.24411054 1.3575464161 1.4671972081 0.60381225391 0.57404952988 0.69302191562 0.54002084522 0.66790778838 0.79216440667 
0.50083690068 0.63877777351 0.77356233629 0.90072551443 0.45538277901 0.60464862014 0.75168694275 0.89058134991 1.0172219679 
0.40226393329 0.56421707518 0.72561863695 0.87851444325 1.0172219679 1.139116835 0.33975332011 0.51573716537 0.69407236469 
0.86392567495 1.0172219679 1.1502619915 1.2630228569 0.26576171152 0.45685295248 0.6552068806 0.84594095064 1.0172219679 
1.1636342747 1.2852923014 1.3852070904 0.22715816343 0.3129712797 0.49462574053 0.49462574053 0.68021497688 0.77059342779 
1.0172219679 1.0172219679 1.0172219679 1.0172219679 2.1243706857 1.5707963268 1.3676273807 1.271087727 1.2156949949 
2.6469669131 2.1243706857 1.7739652728 1.5707963268 1.447813335 1.3676273807 2.8286213739 2.4613776767 2.1243706857 
1.8705049266 1.6937793186 1.5707963268 1.4827341049 2.9144344902 2.6469669131 2.3709992258 2.1243706857 1.9258976586 
1.7739652728 1.6588585487 1.5707963268 1.7563855631 1.8563003522 1.8785697967 1.9779583789 1.9913306621 2.0024758186 
2.1243706857 2.1243706857 2.1243706857 2.1243706857 2.295651703 2.2776669786 2.2630782103 2.2510113037 2.2408671392 
2.486385773 2.4475202889 2.4159740166 2.3899057108 2.3680303173 2.3494282469 2.6847397011 2.6258554882 2.5773755784 
2.5369440334 2.5028148801 2.4736848652 2.448570738 2.8758309421 2.8018393335 2.7393287203 2.6862098746 2.6407557529 
2.6015718084 2.5675431237 2.5377803997 5.8604937156 5.901393709 5.9723133995 5.9473927383 6.0216547488 6.0927478736 
5.9992719463 6.0767621038 6.1501452836 6.2190157008 6.0578962336 6.1383094565 6.2134963469 0 0.064169606361 
6.1241815303 6.206940195 6.2831853072 0.069688960264 0.13304002361 0.19043743361 6.1990255847 0 0.07624511221 
0.14487585072 0.20642320337 0.26153055843 0.3108719077 0 0.084159722458 0.15900377685 0.22528907359 0.28391336087 
0.3357925689 0.38179159818 0.42269159155 5.8604937156 5.9723133995 5.901393709 6.0927478736 6.0216547488 5.9473927383 
6.2190157008 6.1501452836 6.0767621038 5.9992719463 0.064169606361 0 6.2134963469 6.1383094565 6.0578962336 
0.19043743361 0.13304002361 0.069688960264 6.2831853072 6.206940195 6.1241815303 0.3108719077 0.26153055843 0.20642320337 
0.14487585072 0.07624511221 6.2831853072 6.1990255847 0.42269159155 0.38179159818 0.3357925689 0.28391336087 0.22528907359 
0.15900377685 0.084159722458 0 5.6793730533 5.7091357773 5.5901633916 5.743164462 5.6152775188 5.4910209005 
5.7823484065 5.6444075337 5.5096229709 5.3824597928 5.8278025282 5.678536687 5.5314983644 5.3926039573 5.2659633393 
5.8809213739 5.718968232 5.5575666702 5.4046708639 5.2659633393 5.1440684722 5.9434319871 5.7674481418 5.5891129425 
5.4192596322 5.2659633393 5.1329233157 5.0201624502 6.0174235957 5.8263323547 5.6279784266 5.4372443565 5.2659633393 
5.1195510325 4.9978930058 4.8979782167 1.3852070904 1.2852923014 1.2630228569 1.1636342747 1.1502619915 1.139116835 
1.0172219679 1.0172219679 1.0172219679 1.0172219679 0.84594095064 0.86392567495 0.87851444325 0.89058134991 0.90072551443 
0.6552068806 0.69407236469 0.72561863695 0.75168694275 0.77356233629 0.79216440667 0.45685295248 0.51573716537 0.56421707518 
0.60464862014 0.63877777351 0.66790778838 0.69302191562 0.26576171152 0.33975332011 0.40226393329 0.45538277901 0.50083690068 
0.54002084522 0.57404952988 0.60381225391 
_paraPhiHalf 1 1002 double
0 3.1415926536 0 3.1415926536 1.5707963268 1.5707963268 1.5707963268 1.5707963268 2.5880182947 
0.5535743589 2.5880182947 0.5535743589 0 0 0 0 3.1415926536 3.1415926536 
3.1415926536 3.1415926536 3.1415926536 0.17788134 0.38438696014 0.60631181711 0.82323535693 1.0172219679 1.1799687454 
1.3118704726 1.4175000338 1.5022335207 0.17788134 0.38438696014 0.60631181711 0.82323535693 1.0172219679 1.1799687454 
1.3118704726 1.4175000338 1.5022335207 0.093902416448 0.17615329733 0.2478725152 0.31035131605 0.36486382811 0.41257334776 
0.45449736604 0.4915044461 0.52432611754 0.093902416448 0.17615329733 0.2478725152 0.31035131605 0.36486382811 0.41257334776 
0.45449736604 0.4915044461 0.52432611754 2.9637113136 2.7572056934 2.5352808365 2.3183572967 2.1243706857 1.9616239082 
1.829722181 1.7240926197 1.6393591329 2.9637113136 2.7572056934 2.5352808365 2.3183572967 2.1243706857 1.9616239082 
1.829722181 1.7240926197 1.6393591329 3.0476902371 2.9654393563 2.8937201384 2.8312413375 2.7767288255 2.7290193058 
2.6870952876 2.6500882075 2.617266536 3.0476902371 2.9654393563 2.8937201384 2.8312413375 2.7767288255 2.7290193058 
2.6870952876 2.6500882075 2.617266536 0 0 0 0 3.1415926536 3.1415926536 
3.1415926536 3.1415926536 3.1415926536 0.17788134 0.38438696014 0.60631181711 0.82323535693 1.0172219679 1.1799687454 
1.3118704726 1.4175000338 1.5022335207 0.17788134 0.38438696014 0.60631181711 0.82323535693 1.0172219679 1.1799687454 
1.3118704726 1.4175000338 1.5022335207 0.093902416448 0.17615329733 0.2478725152 0.31035131605 0.36486382811 0.41257334776 
0.45449736604 0.4915044461 0.52432611754 0.093902416448 0.17615329733 0.2478725152 0.31035131605 0.36486382811 0.41257334776 
0.45449736604 0.4915044461 0.52432611754 2.9637113136 2.7572056934 2.5352808365 2.3183572967 2.1243706857 1.9616239082 
1.829722181 1.7240926197 1.6393591329 2.9637113136 2.7572056934 2.5352808365 2.3183572967 2.1243706857 1.9616239082 
1.829722181 1.7240926197 1.6393591329 3.0476902371 2.9654393563 2.8937201384 2.8312413375 2.7767288255 2.7290193058 
2.6870952876 2.6500882075 2.617266536 3.0476902371 2.9654393563 2.8937201384 2.8312413375 2.7767288255 2.7290193058 
2.6870952876 2.6500882075 2.617266536 1.5707963268 1.5707963268 1.5707963268 1.5707963268 1.5707963268 1.5707963268 
1.5707963268 1.5707963268 1.5707963268 1.6743954455 1.7840462375 1.8974821136 2.0119052671 2.1243706857 2.232221744 
2.3334263672 2.426721652 2.5115728246 1.4671972081 1.3575464161 1.24411054 1.1296873865 1.0172219679 0.90937090954 
0.80816628637 0.71487100155 0.63001982895 1.6743954455 1.7840462375 1.8974821136 2.0119052671 2.1243706857 2.232221744 
2.3334263672 2.426721652 2.5115728246 1.4671972081 1.3575464161 1.24411054 1.1296873865 1.0172219679 0.90937090954 
0.80816628637 0.71487100155 0.63001982895 1.5707963268 1.5707963268 1.5707963268 1.5707963268 1.5707963268 1.5707963268 
1.5707963268 1.5707963268 1.5707963268 1.6743954455 1.7840462375 1.8974821136 2.0119052671 2.1243706857 2.232221744 
2.3334263672 2.426721652 2.5115728246 1.4671972081 1.3575464161 1.24411054 1.1296873865 1.0172219679 0.90937090954 
0.80816628637 0.71487100155 0.63001982895 1.6743954455 1.7840462375 1.8974821136 2.0119052671 2.1243706857 2.232221744 
2.3334263672 2.426721652 2.5115728246 1.4671972081 1.3575464161 1.24411054 1.1296873865 1.0172219679 0.90937090954 
0.80816628637 0.71487100155 0.63001982895 2.6824132222 2.7864913217 2.8992382033 3.0186096618 3.1415926536 3.0186096618 
2.8992382033 2.7864913217 2.6824132222 0.45917943135 0.35510133185 0.2423544503 0.12298299178 0 0.12298299178 
0.2423544503 0.35510133185 0.45917943135 0.22715816343 0.49462574053 0.3129712797 0.77059342779 0.68021497688 0.49462574053 
1.0172219679 1.0172219679 1.0172219679 1.0172219679 1.2156949949 1.271087727 1.3676273807 1.5707963268 2.1243706857 
1.3676273807 1.447813335 1.5707963268 1.7739652728 2.1243706857 2.6469669131 1.4827341049 1.5707963268 1.6937793186 
1.8705049266 2.1243706857 2.4613776767 2.8286213739 1.5707963268 1.6588585487 1.7739652728 1.9258976586 2.1243706857 
2.3709992258 2.6469669131 2.9144344902 0.26576171152 0.33975332011 0.45685295248 0.40226393329 0.51573716537 0.6552068806 
0.45538277901 0.56421707518 0.69407236469 0.84594095064 0.50083690068 0.60464862014 0.72561863695 0.86392567495 1.0172219679 
0.54002084522 0.63877777351 0.75168694275 0.87851444325 1.0172219679 1.1636342747 0.57404952988 0.66790778838 0.77356233629 
0.89058134991 1.0172219679 1.1502619915 1.2852923014 0.60381225391 0.69302191562 0.79216440667 0.90072551443 1.0172219679 
1.139116835 1.2630228569 1.3852070904 0.71487100155 0.80816628637 0.80816628637 0.90937090954 0.90937090954 0.90937090954 
1.0172219679 1.0172219679 1.0172219679 1.0172219679 1.1296873865 1.1296873865 1.1296873865 1.1296873865 1.1296873865 
1.24411054 1.24411054 1.24411054 1.24411054 1.24411054 1.24411054 1.3575464161 1.3575464161 1.3575464161 
1.3575464161 1.3575464161 1.3575464161 1.3575464161 1.4671972081 1.4671972081 1.4671972081 1.4671972081 1.4671972081 
1.4671972081 1.4671972081 1.4671972081 1.6743954455 1.6743954455 1.7840462375 1.6743954455 1.7840462375 1.8974821136 
1.6743954455 1.7840462375 1.8974821136 2.0119052671 1.6743954455 1.7840462375 1.8974821136 2.0119052671 2.1243706857 
1.6743954455 1.7840462375 1.8974821136 2.0119052671 2.1243706857 2.232221744 1.6743954455 1.7840462375 1.8974821136 
2.0119052671 2.1243706857 2.232221744 2.3334263672 1.6743954455 1.7840462375 1.8974821136 2.0119052671 2.1243706857 
2.232221744 2.3334263672 2.426721652 1.7563855631 1.8785697967 1.8563003522 2.0024758186 1.9913306621 1.9779583789 
2.1243706857 2.1243706857 2.1243706857 2.1243706857 2.2408671392 2.2510113037 2.2630782103 2.2776669786 2.295651703 
2.3494282469 2.3680303173 2.3899057108 2.4159740166 2.4475202889 2.486385773 2.448570738 2.4736848652 2.5028148801 
2.5369440334 2.5773755784 2.6258554882 2.6847397011 2.5377803997 2.5675431237 2.6015718084 2.6407557529 2.6862098746 
2.7393287203 2.8018393335 2.8758309421 2.718901062 2.8307207459 2.7598010554 2.95115522 2.8800620952 2.8058000847 
3.0774230472 3.00855263 2.9351694502 2.8576792927 3.0774230472 3.1415926536 3.0719036933 2.9967168029 2.91630358 
2.95115522 3.00855263 3.0719036933 3.1415926536 3.0653475414 2.9825888767 2.8307207459 2.8800620952 2.9351694502 
2.9967168029 3.0653475414 3.1415926536 3.0574329311 2.718901062 2.7598010554 2.8058000847 2.8576792927 2.91630358 
2.9825888767 3.0574329311 3.1415926536 2.718901062 2.7598010554 2.8307207459 2.8058000847 2.8800620952 2.95115522 
2.8576792927 2.9351694502 3.00855263 3.0774230472 2.91630358 2.9967168029 3.0719036933 3.1415926536 3.0774230472 
2.9825888767 3.0653475414 3.1415926536 3.0719036933 3.00855263 2.95115522 3.0574329311 3.1415926536 3.0653475414 