# vtk DataFile Version 5.1
vtk output
ASCII
DATASET POLYDATA
POINTS 1002 float
-10.5496 -0.0717378 -1.87294 -18.7763 -18.6863 -4.11834 -8.60978 -2.88237 4.06223 
-17.2574 -18.8907 0.451874 -10.9656 -7.54464 -2.43075 -10.3625 -8.56494 0.73872 
-19.194 -6.64308 0.272734 -19.3994 -8.07558 3.94656 -11.8546 -29.2699 -6.19407 
-0.90525 0.541645 -0.0361108 -20.5185 -24.9508 -2.69738 -11.2445 4.31585 3.11832 
-11.2957 -0.944757 -1.98545 -12.1868 -1.99873 -2.06881 -13.2157 -3.33939 -2.03561 
-14.405 -5.08742 -1.91648 -15.7632 -7.2829 -1.94986 -17.0785 -9.77637 -2.28398 
-18.0299 -12.302 -2.77783 -18.5337 -14.6749 -3.25973 -18.7335 -16.8172 -3.69893 
-10.1501 -0.46547 -2.10351 -9.7367 -0.969486 -2.35893 -9.40019 -1.5892 -2.64853 
-9.23384 -2.34692 -2.90703 -9.21609 -3.27326 -3.08049 -9.25218 -4.31394 -3.19605 
-9.37409 -5.30378 -3.21882 -9.70944 -6.12969 -3.05506 -10.2744 -6.84101 -2.74457 
-11.3768 -0.292629 -1.6765 -12.2597 -0.649581 -1.39683 -13.2022 -1.13534 -1.07231 
-14.1891 -1.75252 -0.78381 -15.1901 -2.48119 -0.538758 -16.1824 -3.26706 -0.309335 
-17.1037 -4.11813 -0.127945 -17.8951 -5.03035 0.00374966 -18.5799 -5.89621 0.137113 
-9.59175 0.51811 -1.91437 -8.52654 1.10293 -1.98701 -7.33581 1.64562 -2.03494 
-6.08018 2.03539 -1.95103 -4.85091 2.16685 -1.76795 -3.68124 2.06261 -1.59778 
-2.64588 1.84889 -1.39838 -1.83921 1.56299 -1.05249 -1.26339 1.12919 -0.561991 
-10.3719 0.663999 -1.63928 -10.2123 1.40822 -1.31611 -10.0922 2.09907 -0.886492 
-10.0729 2.77369 -0.429277 -10.1921 3.46406 0.0145861 -10.3985 4.02936 0.526425 
-10.6458 4.37002 1.14828 -10.9169 4.53363 1.83452 -11.1374 4.52062 2.51755 
-18.3857 -18.3656 -4.12617 -17.9093 -17.87 -4.09013 -17.3836 -17.1932 -3.9848 
-16.8786 -16.3325 -3.74604 -16.3675 -15.183 -3.3925 -15.7368 -13.5872 -3.01121 
-14.9137 -11.63 -2.63852 -13.8306 -9.72784 -2.35446 -12.4626 -8.31831 -2.28687 
-19.1164 -17.7721 -3.79249 -19.4279 -16.6803 -3.40747 -19.7237 -15.413 -3.00025 
-19.9482 -13.9799 -2.58251 -20.0105 -12.4856 -2.11221 -19.9444 -11.0695 -1.58282 
-19.8248 -9.75909 -1.07152 -19.6376 -8.55961 -0.612396 -19.4028 -7.52003 -0.165985 
-18.4799 -20.3034 -4.58207 -18.0118 -21.9886 -5.10273 -17.3103 -23.6935 -5.67839 
-16.3704 -25.2941 -6.28253 -15.3322 -26.6738 -6.80527 -14.341 -27.8482 -7.12178 
-13.4029 -28.7926 -7.21847 -12.5684 -29.3386 -7.10848 -12.0184 -29.4421 -6.75741 
-18.9843 -19.8984 -4.35494 -19.1752 -21.0664 -4.5611 -19.3153 -22.1961 -4.70305 
-19.3851 -23.329 -4.79109 -19.4603 -24.3713 -4.82252 -19.6439 -25.1213 -4.73844 
-19.9211 -25.513 -4.46456 -20.1933 -25.5933 -3.97076 -20.3933 -25.3854 -3.33254 
-9.47233 -3.72823 4.08231 -10.4856 -4.68148 4.03153 -11.664 -5.84236 3.90461 
-13.029 -7.28344 3.66403 -14.4706 -8.97929 3.25033 -15.6469 -10.911 2.69194 
-16.3643 -13.0314 2.06896 -16.7994 -15.1501 1.44445 -17.1092 -17.1061 0.890744 
-8.30464 -3.38675 3.88154 -8.05869 -3.98568 3.66142 -7.92871 -4.59283 3.31554 
-7.90245 -5.17534 2.88997 -7.985 -5.81714 2.5235 -8.21108 -6.53013 2.20593 
-8.58583 -7.18179 1.84331 -9.09642 -7.69368 1.45132 -9.70772 -8.1257 1.08042 
-9.42742 -2.99112 4.32331 -10.294 -3.22149 4.64414 -11.2971 -3.58585 4.89355 
-12.5606 -4.10387 4.97394 -14.0203 -4.7711 4.97465 -15.4158 -5.50614 4.94028 
-16.6007 -6.22406 4.75851 -17.6482 -6.90754 4.45751 -18.6073 -7.53583 4.18189 
-7.58371 -2.34636 3.88992 -6.49939 -1.82599 3.68803 -5.44021 -1.33437 3.41455 
-4.46504 -0.851006 3.04674 -3.54933 -0.396293 2.62609 -2.65838 -0.035427 2.21373 
-1.85168 0.236154 1.80306 -1.25261 0.442429 1.30296 -0.941494 0.548535 0.661252 
-8.30968 -2.05155 4.15057 -8.01849 -1.09414 4.25115 -7.81753 -0.028973 4.34433 
-7.84217 1.07716 4.36648 -8.10767 2.16372 4.2874 -8.52206 3.11951 4.15566 
-9.09279 3.78455 4.0101 -9.83793 4.14079 3.8122 -10.6128 4.2979 3.51106 
-16.8492 -18.3814 0.483165 -16.4005 -17.7027 0.562634 -15.9571 -16.7862 0.60775 
-15.5382 -15.5847 0.615088 -15.0781 -14.1854 0.686467 -14.4673 -12.7453 0.831889 
-13.6571 -11.3529 0.960022 -12.663 -10.1101 1.00224 -11.5345 -9.16502 0.921707 
-17.583 -18.2233 0.751597 -17.8662 -17.457 1.14705 -18.1796 -16.5455 1.53608 
-18.5648 -15.4225 1.85048 -18.9199 -14.146 2.17976 -19.1751 -12.8728 2.59228 
-19.3755 -11.6373 3.01311 -19.5089 -10.3944 3.37899 -19.5144 -9.18406 3.69142 
-16.9789 -20.4365 0.0585596 -16.5543 -22.159 -0.410592 -16.0635 -23.9316 -1.02548 
-15.4489 -25.6277 -1.74444 -14.644 -27.1772 -2.5352 -13.8186 -28.4394 -3.41926 
-13.0856 -29.257 -4.30403 -12.4056 -29.6196 -5.07497 -11.927 -29.595 -5.71449 
-17.4862 -20.2566 0.230028 -17.6757 -21.619 -0.0150905 -17.9417 -22.8351 -0.361021 
-18.3338 -23.8512 -0.741567 -18.7556 -24.6583 -1.04153 -19.134 -25.1547 -1.36452 
-19.4759 -25.3151 -1.782 -19.8113 -25.2848 -2.14505 -20.1677 -25.1662 -2.41505 
-10.4968 -7.72642 -2.38835 -10.1028 -7.96909 -2.30852 -9.77562 -8.21343 -2.13502 
-9.45243 -8.40042 -1.83898 -9.27883 -8.51744 -1.39728 -9.37392 -8.59112 -0.85588 
-9.57358 -8.6338 -0.358137 -9.78169 -8.62918 0.0372481 -10.051 -8.59027 0.392813 
-12.6397 -8.97883 -2.13516 -13.9931 -11.4435 -2.22981 -14.6429 -14.7625 -2.70912 
-14.8389 -18.2076 -3.27998 -14.8301 -21.2348 -3.83501 -14.424 -23.7103 -4.51141 
-13.6698 -25.5792 -5.23925 -12.8928 -26.9855 -5.79135 -12.2541 -28.2022 -6.09389 
-9.0397 -6.86825 -2.8602 -7.39459 -6.37032 -3.13045 -6.11889 -5.593 -3.00189 
-4.94215 -4.61963 -2.62902 -3.85027 -3.70908 -2.22741 -2.95005 -2.7945 -1.81814 
-2.09572 -1.87347 -1.4376 -1.33578 -1.0366 -1.07221 -0.929053 -0.229813 -0.606916 
-11.7829 -9.5443 0.489023 -13.0552 -11.2065 0.0965923 -13.848 -13.6769 -0.418114 
-14.2181 -16.7277 -1.00934 -14.3881 -19.9662 -1.74878 -14.1704 -23.0301 -2.67077 
-13.4571 -25.5212 -3.64751 -12.6659 -27.23 -4.58788 -12.1305 -28.3714 -5.46012 
-8.71304 -7.95889 0.709533 -7.00817 -7.4857 0.702457 -5.38224 -6.96879 0.746611 
-3.98561 -6.31256 0.763082 -2.94752 -5.42286 0.701482 -2.15425 -4.30009 0.583565 
-1.43145 -3.11121 0.428067 -0.888646 -1.90102 0.261162 -0.718213 -0.638988 0.10739 
-19.4709 -6.5506 0.611541 -19.7551 -6.43653 0.933844 -19.9641 -6.33693 1.30745 
-20.1414 -6.24898 1.8518 -20.2863 -6.1987 2.48976 -20.2373 -6.32284 3.0191 
-20.0322 -6.69434 3.40964 -19.8527 -7.19878 3.70941 -19.6737 -7.68301 3.89017 
-19.8823 -7.9555 0.104578 -20.5718 -9.5506 -0.145774 -21.2932 -11.3359 -0.490675 
-21.9338 -13.2046 -0.927233 -22.2716 -15.4644 -1.46327 -22.3189 -18.264 -2.02407 
-22.1885 -20.882 -2.42222 -21.809 -22.7015 -2.58112 -21.1861 -23.9354 -2.62702 
-18.6028 -5.36853 0.628962 -17.9321 -3.97849 0.989267 -17.2499 -2.47955 1.31155 
-16.5544 -1.03776 1.58573 -15.7462 0.207238 1.87839 -14.8399 1.32574 2.21196 
-13.9425 2.37413 2.51212 -13.0604 3.24724 2.74988 -12.1603 3.87811 2.9523 
-20.114 -9.34037 3.5013 -20.6614 -10.9398 2.8679 -21.1419 -12.8903 2.11971 
-21.6469 -15.0144 1.464 -21.989 -17.2038 0.852687 -22.0469 -19.3767 0.0929085 
-21.9129 -21.2189 -0.702438 -21.5738 -22.6107 -1.38633 -21.0499 -23.8068 -2.03458 
-18.7582 -6.67519 4.31461 -18.0666 -5.11905 4.65868 -17.319 -3.3938 4.89902 
-16.3686 -1.68526 4.96431 -15.3064 -0.182405 4.88906 -14.3858 1.09484 4.71983 
-13.5516 2.15657 4.42885 -12.6941 3.01923 4.02322 -11.9084 3.73502 3.57163 
-11.7425 -30.369 -6.54349 -12.1504 -31.2766 -6.68689 -13.2769 -31.679 -6.54349 
-14.6535 -31.4298 -6.16992 -15.7305 -30.6092 -5.61471 -16.7981 -29.513 -4.90922 
-18.0734 -28.4854 -4.2346 -19.1304 -27.4761 -3.69173 -19.8541 -26.2611 -3.18904 
-1.29058 1.61701 0.263234 -1.86613 2.53846 0.556209 -2.62726 3.34824 0.804497 
-3.58589 4.18456 1.05467 -4.66561 4.92159 1.33544 -5.92115 5.33749 1.67109 
-7.42957 5.43125 2.10855 -8.94549 5.2489 2.55991 -10.2122 4.83711 2.8947 
-10.9583 -1.39207 -2.23899 -10.6263 -1.99703 -2.48291 -11.9516 -2.54433 -2.30417 
-10.4424 -2.74987 -2.70172 -11.7442 -3.2849 -2.46581 -13.1308 -4.05858 -2.18638 
-10.4727 -3.5981 -2.87136 -11.7329 -4.15319 -2.55755 -13.105 -4.9802 -2.24937 
-14.5351 -6.07569 -2.03382 -10.5679 -4.52736 -2.99396 -11.9395 -5.07588 -2.62358 
-13.312 -6.04443 -2.27526 -14.7331 -7.29345 -2.12529 -16.0671 -8.60419 -2.17377 
-10.6925 -5.51182 -3.02416 -12.2072 -6.10557 -2.68057 -13.7396 -7.24712 -2.35067 
-15.1045 -8.71841 -2.25905 -16.3182 -10.1585 -2.4183 -17.3256 -11.366 -2.64183 
-11.0732 -6.46648 -2.86448 -12.594 -7.2693 -2.6496 -14.1788 -8.64138 -2.48525 
-15.528 -10.3117 -2.50629 -16.526 -11.8552 -2.7392 -17.347 -13.0794 -3.01824 
-18.033 -13.9953 -3.19596 -11.7461 -7.37806 -2.55953 -13.207 -8.49218 -2.49985 
-14.5753 -10.1537 -2.58753 -15.7382 -11.9915 -2.79731 -16.5693 -13.5705 -3.11053 
-17.1875 -14.7627 -3.42271 -17.7763 -15.66 -3.61325 -18.3124 -16.3313 -3.68807 
-9.10351 0.0689743 -2.16489 -7.96935 0.593184 -2.27034 -8.63059 -0.472646 -2.46971 
-6.72365 1.03047 -2.29263 -7.45159 -0.0180016 -2.59278 -8.2307 -1.12385 -2.7983 
-5.41816 1.2496 -2.13122 -6.17969 0.252577 -2.54651 -6.96959 -0.78474 -2.86541 
-7.97052 -1.99026 -3.01686 -4.14133 1.2236 -1.91018 -4.88024 0.26555 -2.3019 
-5.68979 -0.718876 -2.72329 -6.63552 -1.81929 -2.97168 -7.90943 -3.10928 -3.11919 
-2.98406 1.05393 -1.73049 -3.66408 0.122521 -2.03071 -4.50815 -0.883022 -2.44502 
-5.40373 -1.8972 -2.80073 -6.61135 -3.06817 -3.02626 -8.00793 -4.30677 -3.22305 
-2.05091 0.784601 -1.4911 -2.64477 -0.106744 -1.77976 -3.49867 -1.12719 -2.13203 
-4.3752 -2.1475 -2.55848 -5.45896 -3.16997 -2.88299 -6.80766 -4.32728 -3.15036 
-8.1918 -5.35764 -3.27398 -1.37125 0.354488 -1.10197 -1.87376 -0.489101 -1.47023 
-2.69697 -1.43857 -1.79074 -3.56527 -2.45437 -2.20974 -4.53513 -3.40826 -2.62383 
-5.75118 -4.42161 -2.97467 -7.05283 -5.4492 -3.22366 -8.50477 -6.19132 -3.14256 
-0.913134 -1.48529 -0.453914 -1.27379 -2.76132 -0.311462 -1.54075 -2.30181 -0.963516 
-1.89598 -4.00745 -0.196641 -1.99682 -3.59978 -0.921958 -2.39616 -3.15196 -1.41892 
-2.59458 -5.25394 -0.0520083 -2.5705 -4.94412 -0.876463 -2.84368 -4.50215 -1.45016 
-3.30168 -4.06261 -1.82723 -3.46715 -6.33372 0.15819 -3.26732 -6.24389 -0.668133 
-3.41992 -5.91358 -1.4054 -3.84612 -5.4264 -1.8504 -4.37694 -4.97467 -2.22183 
[...]
POINT_DATA 1002
FIELD FieldData 4
_paraPhi 1 1002 double
6.2831853072 3.1415926536 6.2831853072 3.1415926536 4.7123889804 4.7123889804 1.5707963268 1.5707963268 3.6951670125 
5.7296109483 2.5880182947 0.5535743589 6.2831853072 6.2831853072 6.2831853072 6.2831853072 3.1415926536 3.1415926536 
3.1415926536 3.1415926536 3.1415926536 6.1053039672 5.898798347 5.6768734901 5.4599499503 5.2659633393 5.1032165617 
4.9713148346 4.8656852733 4.7809517865 0.17788134 0.38438696014 0.60631181711 0.82323535693 1.0172219679 1.1799687454 
1.3118704726 1.4175000338 1.5022335207 6.1892828907 6.1070320098 6.035312792 5.9728339911 5.9183214791 5.8706119594 
5.8286879411 5.7916808611 5.7588591896 0.093902416448 0.17615329733 0.2478725152 0.31035131605 0.36486382811 0.41257334776 
0.45449736604 0.4915044461 0.52432611754 3.3194739936 3.5259796137 3.7479044707 3.9648280105 4.1588146215 4.321561399 
4.4534631262 4.5590926874 4.6438261743 2.9637113136 2.7572056934 2.5352808365 2.3183572967 2.1243706857 1.9616239082 
1.829722181 1.7240926197 1.6393591329 3.23549507 3.3177459509 3.3894651688 3.4519439696 3.5064564817 3.5541660013 
3.5960900196 3.6330970997 3.6659187711 3.0476902371 2.9654393563 2.8937201384 2.8312413375 2.7767288255 2.7290193058 
2.6870952876 2.6500882075 2.617266536 6.2831853072 6.2831853072 6.2831853072 6.2831853072 3.1415926536 3.1415926536 
3.1415926536 3.1415926536 3.1415926536 6.1053039672 5.898798347 5.6768734901 5.4599499503 5.2659633393 5.1032165617 
4.9713148346 4.8656852733 4.7809517865 0.17788134 0.38438696014 0.60631181711 0.82323535693 1.0172219679 1.1799687454 
1.3118704726 1.4175000338 1.5022335207 6.1892828907 6.1070320098 6.035312792 5.9728339911 5.9183214791 5.8706119594 
5.8286879411 5.7916808611 5.7588591896 0.093902416448 0.17615329733 0.2478725152 0.31035131605 0.36486382811 0.41257334776 
0.45449736604 0.4915044461 0.52432611754 3.3194739936 3.5259796137 3.7479044707 3.9648280105 4.1588146215 4.321561399 
4.4534631262 4.5590926874 4.6438261743 2.9637113136 2.7572056934 2.5352808365 2.3183572967 2.1243706857 1.9616239082 
1.829722181 1.7240926197 1.6393591329 3.23549507 3.3177459509 3.3894651688 3.4519439696 3.5064564817 3.5541660013 
3.5960900196 3.6330970997 3.6659187711 3.0476902371 2.9654393563 2.8937201384 2.8312413375 2.7767288255 2.7290193058 
2.6870952876 2.6500882075 2.617266536 4.7123889804 4.7123889804 4.7123889804 4.7123889804 4.7123889804 4.7123889804 
4.7123889804 4.7123889804 4.7123889804 4.6087898617 4.4991390697 4.3857031936 4.2712800401 4.1588146215 4.0509635631 
3.94975894 3.8564636551 3.7716124825 4.8159880991 4.9256388911 5.0390747672 5.1534979207 5.2659633393 5.3738143976 
5.4750190208 5.5683143056 5.6531654782 4.6087898617 4.4991390697 4.3857031936 4.2712800401 4.1588146215 4.0509635631 
3.94975894 3.8564636551 3.7716124825 4.8159880991 4.9256388911 5.0390747672 5.1534979207 5.2659633393 5.3738143976 
5.4750190208 5.5683143056 5.6531654782 1.5707963268 1.5707963268 1.5707963268 1.5707963268 1.5707963268 1.5707963268 
1.5707963268 1.5707963268 1.5707963268 1.6743954455 1.7840462375 1.8974821136 2.0119052671 2.1243706857 2.232221744 
2.3334263672 2.426721652 2.5115728246 1.4671972081 1.3575464161 1.24411054 1.1296873865 1.0172219679 0.90937090954 
0.80816628637 0.71487100155 0.63001982895 1.6743954455 1.7840462375 1.8974821136 2.0119052671 2.1243706857 2.232221744 
2.3334263672 2.426721652 2.5115728246 1.4671972081 1.3575464161 1.24411054 1.1296873865 1.0172219679 0.90937090954 
0.80816628637 0.71487100155 0.63001982895 3.6007720849 3.4966939854 3.3839471039 3.2645756454 3.1415926536 3.0186096618 
2.8992382033 2.7864913217 2.6824132222 5.8240058758 5.9280839753 6.0408308569 6.1602023154 6.2831853072 0.12298299178 
0.2423544503 0.35510133185 0.45917943135 6.0560271438 5.7885595667 5.9702140275 5.5125918794 5.6029703303 5.7885595667 
5.2659633393 5.2659633393 5.2659633393 5.2659633393 5.0674903122 5.0120975802 4.9155579264 4.7123889804 4.1588146215 
4.9155579264 4.8353719722 4.7123889804 4.5092200343 4.1588146215 3.6362183941 4.8004512023 4.7123889804 4.5894059886 
4.4126803806 4.1588146215 3.8218076305 3.4545639333 4.7123889804 4.6243267584 4.5092200343 4.3572876485 4.1588146215 
3.9121860814 3.6362183941 3.368750817 6.0174235957 5.9434319871 5.8263323547 5.8809213739 5.7674481418 5.6279784266 
5.8278025282 5.718968232 5.5891129425 5.4372443565 5.7823484065 5.678536687 5.5575666702 5.4192596322 5.2659633393 
5.743164462 5.6444075337 5.5314983644 5.4046708639 5.2659633393 5.1195510325 5.7091357773 5.6152775188 5.5096229709 
5.3926039573 5.2659633393 5.1329233157 4.9978930058 5.6793730533 5.5901633916 5.4910209005 5.3824597928 5.2659633393 
5.1440684722 5.0201624502 4.8979782167 5.5683143056 5.4750190208 5.4750190208 5.3738143976 5.3738143976 5.3738143976 
5.2659633393 5.2659633393 5.2659633393 5.2659633393 5.1534979207 5.1534979207 5.1534979207 5.1534979207 5.1534979207 
5.0390747672 5.0390747672 5.0390747672 5.0390747672 5.0390747672 5.0390747672 4.9256388911 4.9256388911 4.9256388911 
4.9256388911 4.9256388911 4.9256388911 4.9256388911 4.8159880991 4.8159880991 4.8159880991 4.8159880991 4.8159880991 
4.8159880991 4.8159880991 4.8159880991 4.6087898617 4.6087898617 4.4991390697 4.6087898617 4.4991390697 4.3857031936 
4.6087898617 4.4991390697 4.3857031936 4.2712800401 4.6087898617 4.4991390697 4.3857031936 4.2712800401 4.1588146215 
4.6087898617 4.4991390697 4.3857031936 4.2712800401 4.1588146215 4.0509635631 4.6087898617 4.4991390697 4.3857031936 
4.2712800401 4.1588146215 4.0509635631 3.94975894 4.6087898617 4.4991390697 4.3857031936 4.2712800401 4.1588146215 
4.0509635631 3.94975894 3.8564636551 4.526799744 4.4046155105 4.426884955 4.2807094886 4.2918546451 4.3052269283 
4.1588146215 4.1588146215 4.1588146215 4.1588146215 4.042318168 4.0321740035 4.0201070968 4.0055183285 3.9875336042 
3.9337570603 3.9151549899 3.8932795963 3.8672112905 3.8356650183 3.7967995342 3.8346145692 3.809500442 3.7803704271 
3.7462412737 3.7058097288 3.657329819 3.5984456061 3.7454049075 3.7156421835 3.6816134988 3.6424295543 3.5969754326 
3.5438565869 3.4813459737 3.4073543651 3.5642842451 3.4524645613 3.5233842518 3.3320300872 3.403123212 3.4773852225 
3.20576226 3.2746326772 3.348015857 3.4255060145 3.0774230472 3.1415926536 3.2112816139 3.2864685043 3.3668817272 
2.95115522 3.00855263 3.0719036933 3.1415926536 3.2178377658 3.3005964304 2.8307207459 2.8800620952 2.9351694502 
2.9967168029 3.0653475414 3.1415926536 3.225752376 2.718901062 2.7598010554 2.8058000847 2.8576792927 2.91630358 
2.9825888767 3.0574329311 3.1415926536 3.5642842451 3.5233842518 3.4524645613 3.4773852225 3.403123212 3.3320300872 
3.4255060145 3.348015857 3.2746326772 3.20576226 3.3668817272 3.2864685043 3.2112816139 3.1415926536 3.0774230472 
3.3005964304 3.2178377658 3.1415926536 3.0719036933 3.00855263 2.95115522 3.225752376 3.1415926536 3.0653475414 
2.9967168029 2.9351694502 2.8800620952 2.8307207459 3.1415926536 3.0574329311 2.9825888767 2.91630358 2.8576792927 
2.8058000847 2.7598010554 2.718901062 4.526799744 4.426884955 4.4046155105 4.3052269283 4.2918546451 4.2807094886 
4.1588146215 4.1588146215 4.1588146215 4.1588146215 3.9875336042 4.0055183285 4.0201070968 4.0321740035 4.042318168 
3.7967995342 3.8356650183 3.8672112905 3.8932795963 3.9151549899 3.9337570603 3.5984456061 3.657329819 3.7058097288 
3.7462412737 3.7803704271 3.809500442 3.8346145692 3.4073543651 3.4813459737 3.5438565869 3.5969754326 3.6424295543 
3.6816134988 3.7156421835 3.7454049075 4.7123889804 4.8004512023 4.6243267584 4.9155579264 4.7123889804 4.5092200343 
5.0674903122 4.8353719722 4.5894059886 4.3572876485 5.2659633393 5.0120975802 4.7123889804 4.4126803806 4.1588146215 
5.5125918794 5.2659633393 4.9155579264 4.5092200343 4.1588146215 3.9121860814 5.7885595667 5.6029703303 5.2659633393 
4.7123889804 4.1588146215 3.8218076305 3.6362183941 6.0560271438 5.9702140275 5.7885595667 5.2659633393 4.1588146215 
3.6362183941 3.4545639333 3.368750817 0.22715816343 0.49462574053 0.3129712797 0.77059342779 0.68021497688 0.49462574053 
1.0172219679 1.0172219679 1.0172219679 1.0172219679 1.2156949949 1.271087727 1.3676273807 1.5707963268 2.1243706857 
1.3676273807 1.447813335 1.5707963268 1.7739652728 2.1243706857 2.6469669131 1.4827341049 1.5707963268 1.6937793186 
1.8705049266 2.1243706857 2.4613776767 2.8286213739 1.5707963268 1.6588585487 1.7739652728 1.9258976586 2.1243706857 
2.3709992258 2.6469669131 2.9144344902 1.7563855631 1.8785697967 1.8563003522 2.0024758186 1.9913306621 1.9779583789 
2.1243706857 2.1243706857 2.1243706857 2.1243706857 2.2408671392 2.2510113037 2.2630782103 2.2776669786 2.295651703 
2.3494282469 2.3680303173 2.3899057108 2.4159740166 2.4475202889 2.486385773 2.448570738 2.4736848652 2.5028148801 
2.5369440334 2.5773755784 2.6258554882 2.6847397011 2.5377803997 2.5675431237 2.6015718084 2.6407557529 2.6862098746 
2.7393287203 2.8018393335 2.8758309421 1.6743954455 1.6743954455 1.7840462375 1.6743954455 1.7840462375 1.8974821136 
1.6743954455 1.7840462375 1.8974821136 2.0119052671 1.6743954455 1.7840462375 1.8974821136 2.0119052671 2.1243706857 
1.6743954455 1.7840462375 1.8974821136 2.0119052671 2.1243706857 2.232221744 1.6743954455 1.7840462375 1.8974821136 
2.0119052671 2.1243706857 2.232221744 2.3334263672 1.6743954455 1.7840462375 1.8974821136 2.0119052671 2.1243706857 
2.232221744 2.3334263672 2.426721652 1.4671972081 1.3575464161 1.4671972081 1.24411054 1.3575464161 1.4671972081 
1.1296873865 1.24411054 1.3575464161 1.4671972081 1.0172219679 1.1296873865 1.24411054 1.3575464161 1.4671972081 
0.90937090954 1.0172219679 1.1296873865 1.24411054 1.3575464161 1.4671972081 0.80816628637 0.90937090954 1.0172219679 
1.1296873865 1.24411054 1.3575464161 1.4671972081 0.71487100155 0.80816628637 0.90937090954 1.0172219679 1.1296873865 
1.24411054 1.3575464161 1.4671972081 0.60381225391 0.57404952988 0.69302191562 0.54002084522 0.66790778838 0.79216440667 
0.50083690068 0.63877777351 0.77356233629 0.90072551443 0.45538277901 0.60464862014 0.75168694275 0.89058134991 1.0172219679 
0.40226393329 0.56421707518 0.72561863695 0.87851444325 1.0172219679 1.139116835 0.33975332011 0.51573716537 0.69407236469 
0.86392567495 1.0172219679 1.1502619915 1.2630228569 0.26576171152 0.45685295248 0.6552068806 0.84594095064 1.0172219679 
1.1636342747 1.2852923014 1.3852070904 0.22715816343 0.3129712797 0.49462574053 0.49462574053 0.68021497688 0.77059342779 
1.0172219679 1.0172219679 1.0172219679 1.0172219679 2.1243706857 1.5707963268 1.3676273807 1.271087727 1.2156949949 
2.6469669131 2.1243706857 1.7739652728 1.5707963268 1.447813335 1.3676273807 2.8286213739 2.4613776767 2.1243706857 
1.8705049266 1.6937793186 1.5707963268 1.4827341049 2.9144344902 2.6469669131 2.3709992258 2.1243706857 1.9258976586 
1.7739652728 1.6588585487 1.5707963268 1.7563855631 1.8563003522 1.8785697967 1.9779583789 1.9913306621 2.0024758186 
2.1243706857 2.1243706857 2.1243706857 2.1243706857 2.295651703 2.2776669786 2.2630782103 2.2510113037 2.2408671392 
2.486385773 2.4475202889 2.4159740166 2.3899057108 2.3680303173 2.3494282469 2.6847397011 2.6258554882 2.5773755784 
2.5369440334 2.5028148801 2.4736848652 2.448570738 2.8758309421 2.8018393335 2.7393287203 2.6862098746 2.6407557529 
2.6015718084 2.5675431237 2.5377803997 5.8604937156 5.901393709 5.9723133995 5.9473927383 6.0216547488 6.0927478736 
5.9992719463 6.0767621038 6.1501452836 6.2190157008 6.0578962336 6.1383094565 6.2134963469 0 0.064169606361 
6.1241815303 6.206940195 6.2831853072 0.069688960264 0.13304002361 0.19043743361 6.1990255847 0 0.07624511221 
0.14487585072 0.20642320337 0.26153055843 0.3108719077 0 0.084159722458 0.15900377685 0.22528907359 0.28391336087 
0.3357925689 0.38179159818 0.42269159155 5.8604937156 5.9723133995 5.901393709 6.0927478736 6.0216547488 5.9473927383 
6.2190157008 6.1501452836 6.0767621038 5.9992719463 0.064169606361 0 6.2134963469 6.1383094565 6.0578962336 
0.19043743361 0.13304002361 0.069688960264 6.2831853072 6.206940195 6.1241815303 0.3108719077 0.26153055843 0.20642320337 
0.14487585072 0.07624511221 6.2831853072 6.1990255847 0.42269159155 0.38179159818 0.3357925689 0.28391336087 0.22528907359 
0.15900377685 0.084159722458 0 5.6793730533 5.7091357773 5.5901633916 5.743164462 5.6152775188 5.4910209005 
5.7823484065 5.6444075337 5.5096229709 5.3824597928 5.8278025282 5.678536687 5.5314983644 5.3926039573 5.2659633393 
5.8809213739 5.718968232 5.5575666702 5.4046708639 5.2659633393 5.1440684722 5.9434319871 5.7674481418 5.5891129425 
5.4192596322 5.2659633393 5.1329233157 5.0201624502 6.0174235957 5.8263323547 5.6279784266 5.4372443565 5.2659633393 
5.1195510325 4.9978930058 4.8979782167 1.3852070904 1.2852923014 1.2630228569 1.1636342747 1.1502619915 1.139116835 
1.0172219679 1.0172219679 1.0172219679 1.0172219679 0.84594095064 0.86392567495 0.87851444325 0.89058134991 0.90072551443 
0.6552068806 0.69407236469 0.72561863695 0.75168694275 0.77356233629 0.79216440667 0.45685295248 0.51573716537 0.56421707518 
0.60464862014 0.63877777351 0.66790778838 0.69302191562 0.26576171152 0.33975332011 0.40226393329 0.45538277901 0.50083690068 
0.54002084522 0.57404952988 0.60381225391 
_paraPhiHalf 1 1002 double
0 3.1415926536 0 3.1415926536 1.5707963268 1.5707963268 1.5707963268 1.5707963268 2.5880182947 
0.5535743589 2.5880182947 0.5535743589 0 0 0 0 3.1415926536 3.1415926536 
3.1415926536 3.1415926536 3.1415926536 0.17788134 0.38438696014 0.60631181711 0.82323535693 1.0172219679 1.1799687454 
1.3118704726 1.4175000338 1.5022335207 0.17788134 0.38438696014 0.60631181711 0.82323535693 1.0172219679 1.1799687454 
1.3118704726 1.4175000338 1.5022335207 0.093902416448 0.17615329733 0.2478725152 0.31035131605 0.36486382811 0.41257334776 
0.45449736604 0.4915044461 0.52432611754 0.093902416448 0.17615329733 0.2478725152 0.31035131605 0.36486382811 0.41257334776 
0.45449736604 0.4915044461 0.52432611754 2.9637113136 2.7572056934 2.5352808365 2.3183572967 2.1243706857 1.9616239082 
1.829722181 1.7240926197 1.6393591329 2.9637113136 2.7572056934 2.5352808365 2.3183572967 2.1243706857 1.9616239082 
1.829722181 1.7240926197 1.6393591329 3.0476902371 2.9654393563 2.8937201384 2.8312413375 2.7767288255 2.7290193058 
2.6870952876 2.6500882075 2.617266536 3.0476902371 2.9654393563 2.8937201384 2.8312413375 2.7767288255 2.7290193058 
2.6870952876 2.6500882075 2.617266536 0 0 0 0 3.1415926536 3.1415926536 
3.1415926536 3.1415926536 3.1415926536 0.17788134 0.38438696014 0.60631181711 0.82323535693 1.0172219679 1.1799687454 
1.3118704726 1.4175000338 1.5022335207 0.17788134 0.38438696014 0.60631181711 0.82323535693 1.0172219679 1.1799687454 
1.3118704726 1.4175000338 1.5022335207 0.093902416448 0.17615329733 0.2478725152 0.31035131605 0.36486382811 0.41257334776 
0.45449736604 0.4915044461 0.52432611754 0.093902416448 0.17615329733 0.2478725152 0.31035131605 0.36486382811 0.41257334776 
0.45449736604 0.4915044461 0.52432611754 2.9637113136 2.7572056934 2.5352808365 2.3183572967 2.1243706857 1.9616239082 
1.829722181 1.7240926197 1.6393591329 2.9637113136 2.7572056934 2.5352808365 2.3183572967 2.1243706857 1.9616239082 
1.829722181 1.7240926197 1.6393591329 3.0476902371 2.9654393563 2.8937201384 2.8312413375 2.7767288255 2.7290193058 
2.6870952876 2.6500882075 2.617266536 3.0476902371 2.9654393563 2.8937201384 2.8312413375 2.7767288255 2.7290193058 
2.6870952876 2.6500882075 2.617266536 1.5707963268 1.5707963268 1.5707963268 1.5707963268 1.5707963268 1.5707963268 
1.5707963268 1.5707963268 1.5707963268 1.6743954455 1.7840462375 1.8974821136 2.0119052671 2.1243706857 2.232221744 
2.3334263672 2.426721652 2.5115728246 1.4671972081 1.3575464161 1.24411054 1.1296873865 1.0172219679 0.90937090954 
0.80816628637 0.71487100155 0.63001982895 1.6743954455 1.7840462375 1.8974821136 2.0119052671 2.1243706857 2.232221744 
2.3334263672 2.426721652 2.5115728246 1.4671972081 1.3575464161 1.24411054 1.1296873865 1.0172219679 0.90937090954 
0.80816628637 0.71487100155 0.63001982895 1.5707963268 1.5707963268 1.5707963268 1.5707963268 1.5707963268 1.5707963268 
1.5707963268 1.5707963268 1.5707963268 1.6743954455 1.7840462375 1.8974821136 2.0119052671 2.1243706857 2.232221744 
2.3334263672 2.426721652 2.5115728246 1.4671972081 1.3575464161 1.24411054 1.1296873865 1.0172219679 0.90937090954 
0.80816628637 0.71487100155 0.63001982895 1.6743954455 1.7840462375 1.8974821136 2.0119052671 2.1243706857 2.232221744 
2.3334263672 2.426721652 2.5115728246 1.4671972081 1.3575464161 1.24411054 1.1296873865 1.0172219679 0.90937090954 
0.80816628637 0.71487100155 0.63001982895 2.6824132222 2.7864913217 2.8992382033 3.0186096618 3.1415926536 3.0186096618 
2.8992382033 2.7864913217 2.6824132222 0.45917943135 0.35510133185 0.2423544503 0.12298299178 0 0.12298299178 
0.2423544503 0.35510133185 0.45917943135 0.22715816343 0.49462574053 0.3129712797 0.77059342779 0.68021497688 0.49462574053 
1.0172219679 1.0172219679 1.0172219679 1.0172219679 1.2156949949 1.271087727 1.3676273807 1.5707963268 2.1243706857 
1.3676273807 1.447813335 1.5707963268 1.7739652728 2.1243706857 2.6469669131 1.4827341049 1.5707963268 1.6937793186 
1.8705049266 2.1243706857 2.4613776767 2.8286213739 1.5707963268 1.6588585487 1.7739652728 1.9258976586 2.1243706857 
2.3709992258 2.6469669131 2.9144344902 0.26576171152 0.33975332011 0.45685295248 0.40226393329 0.51573716537 0.6552068806 
0.45538277901 0.56421707518 0.69407236469 0.84594095064 0.50083690068 0.60464862014 0.72561863695 0.86392567495 1.0172219679 
0.54002084522 0.63877777351 0.75168694275 0.87851444325 1.0172219679 1.1636342747 0.57404952988 0.66790778838 0.77356233629 
0.89058134991 1.0172219679 1.1502619915 1.2852923014 0.60381225391 0.69302191562 0.79216440667 0.90072551443 1.0172219679 
1.139116835 1.2630228569 1.3852070904 0.71487100155 0.80816628637 0.80816628637 0.90937090954 0.90937090954 0.90937090954 
1.0172219679 1.0172219679 1.0172219679 1.0172219679 1.1296873865 1.1296873865 1.1296873865 1.1296873865 1.1296873865 
1.24411054 1.24411054 1.24411054 1.24411054 1.24411054 1.24411054 1.3575464161 1.3575464161 1.3575464161 
1.3575464161 1.3575464161 1.3575464161 1.3575464161 1.4671972081 1.4671972081 1.4671972081 1.4671972081 1.4671972081 
1.4671972081 1.4671972081 1.4671972081 1.6743954455 1.6743954455 1.7840462375 1.6743954455 1.7840462375 1.8974821136 
1.6743954455 1.7840462375 1.8974821136 2.0119052671 1.6743954455 1.7840462375 1.8974821136 2.0119052671 2.1243706857 
1.6743954455 1.7840462375 1.8974821136 2.0119052671 2.1243706857 2.232221744 1.6743954455 1.7840462375 1.8974821136 
2.0119052671 2.1243706857 2.232221744 2.3334263672 1.6743954455 1.7840462375 1.8974821136 2.0119052671 2.1243706857 
2.232221744 2.3334263672 2.426721652 1.7563855631 1.8785697967 1.8563003522 2.0024758186 1.9913306621 1.9779583789 
2.1243706857 2.1243706857 2.1243706857 2.1243706857 2.2408671392 2.2510113037 2.2630782103 2.2776669786 2.295651703 
2.3494282469 2.3680303173 2.3899057108 2.4159740166 2.4475202889 2.486385773 2.448570738 2.4736848652 2.5028148801 
2.5369440334 2.5773755784 2.6258554882 2.6847397011 2.5377803997 2.5675431237 2.6015718084 2.6407557529 2.6862098746 
2.7393287203 2.8018393335 2.8758309421 2.718901062 2.8307207459 2.7598010554 2.95115522 2.8800620952 2.8058000847 
3.0774230472 3.00855263 2.9351694502 2.8576792927 3.0774230472 3.1415926536 3.0719036933 2.9967168029 2.91630358 
2.95115522 3.00855263 3.0719036933 3.1415926536 3.0653475414 2.9825888767 2.8307207459 2.8800620952 2.9351694502 
2.9967168029 3.0653475414 3.1415926536 3.0574329311 2.718901062 2.7598010554 2.8058000847 2.8576792927 2.91630358 
2.9825888767 3.0574329311 3.1415926536 2.718901062 2.7598010554 2.8307207459 2.8058000847 2.8800620952 2.95115522 
2.8576792927 2.9351694502 3.00855263 3.0774230472 2.91630358 2.9967168029 3.0719036933 3.1415926536 3.0774230472 
2.9825888767 3.0653475414 3.1415926536 3.0719036933 3.00855263 2.95115522 3.0574329311 3.1415926536 3.0653475414 