# vtk DataFile Version 5.1
vtk output
ASCII
DATASET POLYDATA
POINTS 1002 float
-10.0632 -0.058276 -3.43834 10.3643 -1.04835 -2.4589 -9.22535 0.648338 3.32091 
9.21073 -1.07941 2.22123 -2.99092 2.02532 -2.03453 -2.82192 1.86768 1.3414 
-1.22368 -6.49575 -1.72514 -0.464383 -7.41401 2.03938 17.815 9.05294 0.126246 
-14.5107 7.82454 0.414364 16.4883 -1.15413 0.145772 -14.6605 -3.61078 -0.138283 
-8.97034 -0.425741 -3.48526 -7.66349 -0.877473 -3.49069 -6.06364 -1.40255 -3.34273 
-4.04697 -1.97474 -3.04271 -1.53325 -2.51338 -2.80411 1.28781 -2.82681 -2.755 
4.03055 -2.75295 -2.75912 6.46578 -2.32779 -2.68644 8.5706 -1.71369 -2.56367 
-9.81251 0.493744 -3.45123 -9.46214 1.09992 -3.45408 -8.9718 1.68322 -3.47586 
-8.29766 2.14599 -3.47196 -7.42894 2.49973 -3.37864 -6.44572 2.82157 -3.21324 
-5.49288 3.02132 -2.99561 -4.64232 2.92007 -2.69946 -3.83621 2.53101 -2.35242 
-9.58821 -0.795956 -3.39316 -8.98259 -1.56853 -3.24682 -8.24487 -2.36966 -3.03805 
-7.36458 -3.15908 -2.83789 -6.36991 -3.9132 -2.6514 -5.32352 -4.63723 -2.46196 
-4.2358 -5.26223 -2.28264 -3.13191 -5.73626 -2.10208 -2.11015 -6.12927 -1.90702 
-10.9497 0.634603 -3.40767 -11.8662 1.43536 -3.37906 -12.795 2.35373 -3.28599 
-13.6306 3.33498 -3.01306 -14.2374 4.33975 -2.58401 -14.6048 5.36703 -2.11744 
-14.8273 6.29785 -1.62607 -14.9241 6.99876 -1.03324 -14.8249 7.49152 -0.320729 
-10.8405 -0.197707 -3.3772 -11.6341 -0.384477 -3.23921 -12.3825 -0.624322 -2.99694 
-13.0834 -0.958425 -2.74864 -13.745 -1.41742 -2.55018 -14.2717 -1.93817 -2.27532 
-14.5968 -2.46221 -1.84683 -14.7624 -2.9741 -1.31604 -14.785 -3.38567 -0.728337 
9.92811 -0.793166 -2.45964 9.29288 -0.528263 -2.44633 8.46214 -0.296456 -2.40566 
7.44846 -0.181813 -2.29532 6.14934 -0.186432 -2.15471 4.39363 -0.228592 -2.08045 
2.23806 -0.205651 -2.06609 0.0515214 0.0956605 -2.05728 -1.75407 0.871957 -2.04882 
9.60031 -1.73625 -2.4839 8.6534 -2.47155 -2.49501 7.53667 -3.25331 -2.52916 
6.2404 -4.02502 -2.58134 4.81911 -4.68654 -2.5623 3.41161 -5.22786 -2.4363 
2.08386 -5.68309 -2.28573 0.841196 -6.02727 -2.13764 -0.270968 -6.27585 -1.9467 
11.8098 -0.141384 -2.3826 13.2635 0.958628 -2.29987 14.6581 2.29162 -2.20729 
15.8738 3.81582 -2.11252 16.8376 5.33501 -1.97812 17.5963 6.68357 -1.71828 
18.1273 7.84429 -1.32845 18.2978 8.72474 -0.878473 18.1287 9.13797 -0.391607 
11.5884 -0.789928 -2.40105 12.7607 -0.539391 -2.3227 13.8683 -0.275326 -2.18266 
14.9435 0.0356924 -1.97468 15.9284 0.296121 -1.73975 16.6669 0.333296 -1.50217 
17.0807 0.11667 -1.20702 17.171 -0.260497 -0.789895 16.9468 -0.706745 -0.298872 
-8.13671 0.125833 3.36243 -6.8821 -0.476617 3.33091 -5.36376 -1.13961 3.24514 
-3.50105 -1.84849 3.08462 -1.3479 -2.49318 2.81334 0.946827 -2.78175 2.53444 
3.2548 -2.58028 2.35616 5.45672 -2.1256 2.24343 7.45175 -1.63058 2.18269 
-8.84721 1.13361 3.36195 -8.35409 1.60715 3.37768 -7.7891 2.01921 3.25063 
-7.19459 2.35606 3.0178 -6.51567 2.59452 2.83011 -5.72686 2.71029 2.67299 
-4.93127 2.68828 2.4217 -4.20795 2.5111 2.0727 -3.52381 2.21246 1.69766 
-8.86737 -0.135483 3.39831 -8.39034 -0.94522 3.55264 -7.72824 -1.8138 3.64402 
-6.80056 -2.81536 3.55714 -5.65038 -3.92202 3.38946 -4.45608 -4.93934 3.22276 
-3.33046 -5.72577 2.96435 -2.26693 -6.36145 2.61828 -1.29083 -6.94279 2.30205 
-10.0658 1.46061 3.26044 -10.9085 2.33936 3.19054 -11.7035 3.22714 3.05566 
-12.4438 4.0721 2.81498 -13.1269 4.88928 2.51856 -13.7165 5.7102 2.24937 
-14.1937 6.48222 1.98577 -14.5191 7.11631 1.60682 -14.6221 7.56767 1.05411 
-10.1102 0.636111 3.25008 -11.1094 0.573382 3.15426 -12.1723 0.399167 3.00078 
-13.1769 0.0326236 2.71604 -14.0571 -0.511848 2.2846 -14.7538 -1.13327 1.80388 
-15.1247 -1.80192 1.35161 -15.1401 -2.51622 0.892449 -14.9451 -3.16354 0.383845 
8.58905 -0.878391 2.2101 7.78953 -0.707997 2.20773 6.78064 -0.603952 2.10766 
5.52707 -0.596861 1.88931 4.06673 -0.633411 1.68701 2.50076 -0.570887 1.57871 
0.907255 -0.309273 1.51489 -0.603154 0.190383 1.45545 -1.87068 0.940548 1.39427 
8.67107 -1.67062 2.24217 8.00908 -2.28456 2.33569 7.22688 -2.96786 2.37671 
6.29083 -3.75619 2.27373 5.20095 -4.56922 2.1502 4.06289 -5.31797 2.12912 
2.93755 -6.00875 2.13908 1.78994 -6.62419 2.11181 0.63373 -7.09779 2.07412 
10.5858 -0.232679 2.33961 12.0809 0.823294 2.47008 13.622 2.00033 2.49402 
15.0651 3.29834 2.42982 16.3159 4.74532 2.30446 17.3128 6.15282 2.01923 
17.9381 7.34191 1.59084 18.1481 8.3085 1.13273 18.057 8.93433 0.644165 
10.5804 -0.797481 2.32949 11.9362 -0.473867 2.42451 13.2041 -0.231449 2.36763 
14.3418 -0.152095 2.19416 15.2861 -0.188963 2.03211 15.9347 -0.274185 1.7749 
16.2788 -0.39907 1.34727 16.4372 -0.593551 0.920357 16.507 -0.863553 0.551254 
-3.00594 2.48799 -1.83367 -2.94401 2.89017 -1.59931 -2.8717 3.203 -1.29315 
-2.87112 3.45574 -0.889192 -2.90374 3.50647 -0.404125 -2.89329 3.27106 0.0979351 
-2.86497 2.94627 0.525886 -2.85928 2.63209 0.843564 -2.85543 2.26518 1.10018 
-1.11112 0.866099 -1.77085 1.65706 0.433392 -1.51535 5.00986 1.01527 -1.21898 
8.32512 2.07207 -0.865324 11.1803 3.18011 -0.56109 13.405 4.51514 -0.424439 
14.9556 5.99393 -0.416766 16.0456 7.29612 -0.365016 16.9711 8.33684 -0.16497 
-4.24939 3.68429 -2.15763 -5.26789 5.09495 -2.15111 -6.47238 5.96177 -1.93668 
-7.86074 6.60214 -1.57119 -9.16518 7.17633 -1.18217 -10.4035 7.57486 -0.832934 
-11.6259 7.93939 -0.523199 -12.7339 8.24971 -0.227376 -13.7004 8.22038 0.0852974 
-1.35873 0.971244 1.03413 0.697324 0.461446 0.814055 3.33436 0.667442 0.813452 
6.35761 1.45424 0.999732 9.50331 2.52503 1.14645 12.3769 3.9487 1.16837 
14.5531 5.65985 1.10264 15.98 7.19086 0.877658 16.972 8.29739 0.501375 
-3.98176 3.17246 1.54448 -5.04458 4.56042 1.81739 -6.12678 5.84789 2.10737 
-7.24648 6.89589 2.27898 -8.43315 7.5758 2.22884 -9.73231 7.98286 2.00455 
-11.0593 8.31848 1.71046 -12.3371 8.48971 1.35693 -13.5264 8.30675 0.912576 
-1.26308 -6.88046 -1.50046 -1.31671 -7.27298 -1.29875 -1.39369 -7.61005 -1.02733 
-1.50085 -7.96945 -0.585937 -1.60153 -8.31818 -0.0393245 -1.59637 -8.40502 0.499609 
-1.39962 -8.2321 1.0134 -1.05657 -8.0127 1.47244 -0.711538 -7.76195 1.81492 
0.258374 -6.65959 -1.69115 2.01296 -6.71212 -1.65756 3.9691 -6.70512 -1.66826 
5.98706 -6.57099 -1.72253 8.26672 -6.01404 -1.69125 10.9358 -5.0239 -1.46745 
13.3455 -3.98149 -1.09865 14.8932 -3.03536 -0.663418 15.7967 -2.08537 -0.223189 
-2.66712 -6.46749 -1.59673 -4.2462 -6.40434 -1.47676 -5.92252 -6.35198 -1.41899 
-7.54339 -6.25493 -1.38742 -9.02951 -6.00258 -1.25839 -10.4435 -5.63666 -1.03349 
-11.7844 -5.24669 -0.822895 -12.949 -4.79718 -0.626708 -13.8931 -4.24628 -0.393549 
1.03106 -7.52765 1.79579 2.80205 -7.32928 1.50734 4.88837 -6.92714 1.22294 
7.12648 -6.52356 1.06589 9.35629 -5.96799 1.00688 11.4909 -5.11506 0.872918 
13.2586 -4.17945 0.662145 14.52 -3.23275 0.482348 15.5281 -2.19118 0.326996 
-2.0433 -7.38294 2.15672 -3.779 -7.34658 2.22154 -5.67225 -7.27845 2.15727 
-7.59566 -6.96739 1.98278 -9.34878 -6.44855 1.75965 -10.8275 -5.95797 1.47613 
-12.0566 -5.44043 1.11676 -13.0932 -4.80465 0.709993 -13.9612 -4.17395 0.282934 
18.8363 9.60012 0.124808 19.8406 9.55655 0.139316 20.6012 8.62269 0.112668 
20.8204 7.19217 0.0643655 20.376 5.7984 0.102383 19.6509 4.28108 0.20815 
19.0707 2.60815 0.254042 18.4486 1.17874 0.234255 17.5221 -0.00152901 0.200967 
-15.4006 7.05534 0.310185 -16.0784 6.16442 0.196263 -16.5779 5.15523 0.0265307 
-17.0287 3.9601 -0.195847 -17.3491 2.67685 -0.391771 -17.3205 1.31624 -0.491603 
-16.9214 -0.205494 -0.469738 -16.2697 -1.65418 -0.361941 -15.4811 -2.7721 -0.241134 
-8.64388 0.0942858 -3.51989 -8.17308 0.654415 -3.50417 -7.21251 -0.424953 -3.50618 
-7.51666 1.11884 -3.46038 -6.58569 0.0385039 -3.4068 -5.41282 -1.05893 -3.26828 
-6.70211 1.40443 -3.39613 -5.78151 0.342776 -3.25453 -4.57018 -0.734634 -3.07131 
-3.07645 -1.75268 -2.91564 -5.79748 1.64143 -3.28162 -4.85121 0.459771 -3.11566 
-3.51735 -0.587543 -2.85678 -1.87565 -1.52975 -2.71852 -0.176096 -2.31179 -2.7278 
-4.8473 1.83952 -3.073 -3.80214 0.551777 -2.954 -2.24791 -0.580418 -2.70367 
-0.414136 -1.38589 -2.54623 1.37776 -1.98513 -2.59498 2.8917 -2.44971 -2.71735 
-3.86167 1.73811 -2.75664 -2.60145 0.549646 -2.70252 -0.789168 -0.506478 -2.55666 
1.23964 -1.20119 -2.44662 3.05853 -1.55187 -2.48449 4.52802 -1.82631 -2.60951 
5.6488 -2.10601 -2.69127 -2.83178 1.31507 -2.38634 -1.28315 0.324818 -2.37832 
0.756 -0.368463 -2.33737 2.90085 -0.78477 -2.3134 4.70388 -0.949198 -2.37665 
6.07461 -1.04087 -2.49275 7.14463 -1.23496 -2.56826 7.96901 -1.48742 -2.58442 
-10.678 1.2896 -3.40292 -11.5591 2.18117 -3.37201 -10.307 1.97636 -3.42742 
-12.4164 3.17286 -3.21334 -11.1382 2.93501 -3.38339 -9.80474 2.63857 -3.46189 
-13.1279 4.2262 -2.81003 -11.8646 3.9792 -3.10939 -10.5704 3.68831 -3.31475 
-9.07293 3.20597 -3.36888 -13.615 5.30957 -2.29157 -12.3997 5.06348 -2.57411 
-11.1292 4.77148 -2.89406 -9.7316 4.33752 -3.05385 -8.05645 3.63471 -3.1467 
-13.9197 6.34265 -1.80137 -12.7661 6.11211 -1.99171 -11.4646 5.79333 -2.3076 
-10.1462 5.41227 -2.57882 -8.59099 4.75752 -2.7608 -6.90891 3.94464 -2.94285 
-14.0604 7.18596 -1.2821 -12.9773 7.01685 -1.45191 -11.6691 6.67401 -1.70826 
-10.3401 6.33447 -2.03923 -8.94958 5.77711 -2.3241 -7.34748 5.00491 -2.58254 
-5.87259 4.11637 -2.74976 -13.9858 7.80309 -0.640273 -12.9666 7.72676 -0.875399 
-11.74 7.3797 -1.11401 -10.4194 7.04379 -1.43729 -9.11855 6.5963 -1.79703 
-7.68285 5.92582 -2.14055 -6.21976 5.15043 -2.40572 -5.01773 4.04788 -2.47631 
-12.586 8.56882 0.57172 -11.3115 8.58893 0.963827 -11.5212 8.41701 0.167551 
-9.96255 8.37403 1.25954 -10.174 8.39034 0.448707 -10.3504 8.05375 -0.231442 
-8.59008 8.08116 1.56488 -8.74167 8.27101 0.717967 -8.94638 8.07388 -0.00198327 
-9.1138 7.64896 -0.582118 -7.31647 7.56041 1.84463 -7.33204 7.97569 1.09756 
-7.45168 7.97295 0.284146 -7.66283 7.58369 -0.364624 -7.81534 7.0879 -0.960215 
-6.17182 6.59773 1.89017 -6.10419 7.22539 1.40939 -6.06813 7.55411 0.637752 
-6.16611 7.40382 -0.145645 -6.30966 6.936 -0.794335 -6.42087 6.46107 -1.39428 
-5.09032 5.2663 1.66083 -5.04572 5.93241 1.39411 -4.96672 6.49849 0.834896 
[...]
POINT_DATA 1002
FIELD FieldData 4
_paraPhi 1 1002 double
6.2831853072 3.1415926536 6.2831853072 3.1415926536 4.7123889804 4.7123889804 1.5707963268 1.5707963268 3.6951670125 
5.7296109483 2.5880182947 0.5535743589 6.2831853072 6.2831853072 6.2831853072 6.2831853072 3.1415926536 3.1415926536 
3.1415926536 3.1415926536 3.1415926536 6.1053039672 5.898798347 5.6768734901 5.4599499503 5.2659633393 5.1032165617 
4.9713148346 4.8656852733 4.7809517865 0.17788134 0.38438696014 0.60631181711 0.82323535693 1.0172219679 1.1799687454 
1.3118704726 1.4175000338 1.5022335207 6.1892828907 6.1070320098 6.035312792 5.9728339911 5.9183214791 5.8706119594 
5.8286879411 5.7916808611 5.7588591896 0.093902416448 0.17615329733 0.2478725152 0.31035131605 0.36486382811 0.41257334776 
0.45449736604 0.4915044461 0.52432611754 3.3194739936 3.5259796137 3.7479044707 3.9648280105 4.1588146215 4.321561399 
4.4534631262 4.5590926874 4.6438261743 2.9637113136 2.7572056934 2.5352808365 2.3183572967 2.1243706857 1.9616239082 
1.829722181 1.7240926197 1.6393591329 3.23549507 3.3177459509 3.3894651688 3.4519439696 3.5064564817 3.5541660013 
3.5960900196 3.6330970997 3.6659187711 3.0476902371 2.9654393563 2.8937201384 2.8312413375 2.7767288255 2.7290193058 
2.6870952876 2.6500882075 2.617266536 6.2831853072 6.2831853072 6.2831853072 6.2831853072 3.1415926536 3.1415926536 
3.1415926536 3.1415926536 3.1415926536 6.1053039672 5.898798347 5.6768734901 5.4599499503 5.2659633393 5.1032165617 
4.9713148346 4.8656852733 4.7809517865 0.17788134 0.38438696014 0.60631181711 0.82323535693 1.0172219679 1.1799687454 
1.3118704726 1.4175000338 1.5022335207 6.1892828907 6.1070320098 6.035312792 5.9728339911 5.9183214791 5.8706119594 
5.8286879411 5.7916808611 5.7588591896 0.093902416448 0.17615329733 0.2478725152 0.31035131605 0.36486382811 0.41257334776 
0.45449736604 0.4915044461 0.52432611754 3.3194739936 3.5259796137 3.7479044707 3.9648280105 4.1588146215 4.321561399 
4.4534631262 4.5590926874 4.6438261743 2.9637113136 2.7572056934 2.5352808365 2.3183572967 2.1243706857 1.9616239082 
1.829722181 1.7240926197 1.6393591329 3.23549507 3.3177459509 3.3894651688 3.4519439696 3.5064564817 3.5541660013 
3.5960900196 3.6330970997 3.6659187711 3.0476902371 2.9654393563 2.8937201384 2.8312413375 2.7767288255 2.7290193058 
2.6870952876 2.6500882075 2.617266536 4.7123889804 4.7123889804 4.7123889804 4.7123889804 4.7123889804 4.7123889804 
4.7123889804 4.7123889804 4.7123889804 4.6087898617 4.4991390697 4.3857031936 4.2712800401 4.1588146215 4.0509635631 
3.94975894 3.8564636551 3.7716124825 4.8159880991 4.9256388911 5.0390747672 5.1534979207 5.2659633393 5.3738143976 
5.4750190208 5.5683143056 5.6531654782 4.6087898617 4.4991390697 4.3857031936 4.2712800401 4.1588146215 4.0509635631 
3.94975894 3.8564636551 3.7716124825 4.8159880991 4.9256388911 5.0390747672 5.1534979207 5.2659633393 5.3738143976 
5.4750190208 5.5683143056 5.6531654782 1.5707963268 1.5707963268 1.5707963268 1.5707963268 1.5707963268 1.5707963268 
1.5707963268 1.5707963268 1.5707963268 1.6743954455 1.7840462375 1.8974821136 2.0119052671 2.1243706857 2.232221744 
2.3334263672 2.426721652 2.5115728246 1.4671972081 1.3575464161 1.24411054 1.1296873865 1.0172219679 0.90937090954 
0.80816628637 0.71487100155 0.63001982895 1.6743954455 1.7840462375 1.8974821136 2.0119052671 2.1243706857 2.232221744 
2.3334263672 2.426721652 2.5115728246 1.4671972081 1.3575464161 1.24411054 1.1296873865 1.0172219679 0.90937090954 
0.80816628637 0.71487100155 0.63001982895 3.6007720849 3.4966939854 3.3839471039 3.2645756454 3.1415926536 3.0186096618 
2.8992382033 2.7864913217 2.6824132222 5.8240058758 5.9280839753 6.0408308569 6.1602023154 6.2831853072 0.12298299178 
0.2423544503 0.35510133185 0.45917943135 6.0560271438 5.7885595667 5.9702140275 5.5125918794 5.6029703303 5.7885595667 
5.2659633393 5.2659633393 5.2659633393 5.2659633393 5.0674903122 5.0120975802 4.9155579264 4.7123889804 4.1588146215 
4.9155579264 4.8353719722 4.7123889804 4.5092200343 4.1588146215 3.6362183941 4.8004512023 4.7123889804 4.5894059886 
4.4126803806 4.1588146215 3.8218076305 3.4545639333 4.7123889804 4.6243267584 4.5092200343 4.3572876485 4.1588146215 
3.9121860814 3.6362183941 3.368750817 6.0174235957 5.9434319871 5.8263323547 5.8809213739 5.7674481418 5.6279784266 
5.8278025282 5.718968232 5.5891129425 5.4372443565 5.7823484065 5.678536687 5.5575666702 5.4192596322 5.2659633393 
5.743164462 5.6444075337 5.5314983644 5.4046708639 5.2659633393 5.1195510325 5.7091357773 5.6152775188 5.5096229709 
5.3926039573 5.2659633393 5.1329233157 4.9978930058 5.6793730533 5.5901633916 5.4910209005 5.3824597928 5.2659633393 
5.1440684722 5.0201624502 4.8979782167 5.5683143056 5.4750190208 5.4750190208 5.3738143976 5.3738143976 5.3738143976 
5.2659633393 5.2659633393 5.2659633393 5.2659633393 5.1534979207 5.1534979207 5.1534979207 5.1534979207 5.1534979207 
5.0390747672 5.0390747672 5.0390747672 5.0390747672 5.0390747672 5.0390747672 4.9256388911 4.9256388911 4.9256388911 
4.9256388911 4.9256388911 4.9256388911 4.9256388911 4.8159880991 4.8159880991 4.8159880991 4.8159880991 4.8159880991 
4.8159880991 4.8159880991 4.8159880991 4.6087898617 4.6087898617 4.4991390697 4.6087898617 4.4991390697 4.3857031936 
4.6087898617 4.4991390697 4.3857031936 4.2712800401 4.6087898617 4.4991390697 4.3857031936 4.2712800401 4.1588146215 
4.6087898617 4.4991390697 4.3857031936 4.2712800401 4.1588146215 4.0509635631 4.6087898617 4.4991390697 4.3857031936 
4.2712800401 4.1588146215 4.0509635631 3.94975894 4.6087898617 4.4991390697 4.3857031936 4.2712800401 4.1588146215 
4.0509635631 3.94975894 3.8564636551 4.526799744 4.4046155105 4.426884955 4.2807094886 4.2918546451 4.3052269283 
4.1588146215 4.1588146215 4.1588146215 4.1588146215 4.042318168 4.0321740035 4.0201070968 4.0055183285 3.9875336042 
3.9337570603 3.9151549899 3.8932795963 3.8672112905 3.8356650183 3.7967995342 3.8346145692 3.809500442 3.7803704271 
3.7462412737 3.7058097288 3.657329819 3.5984456061 3.7454049075 3.7156421835 3.6816134988 3.6424295543 3.5969754326 
3.5438565869 3.4813459737 3.4073543651 3.5642842451 3.4524645613 3.5233842518 3.3320300872 3.403123212 3.4773852225 
3.20576226 3.2746326772 3.348015857 3.4255060145 3.0774230472 3.1415926536 3.2112816139 3.2864685043 3.3668817272 
2.95115522 3.00855263 3.0719036933 3.1415926536 3.2178377658 3.3005964304 2.8307207459 2.8800620952 2.9351694502 
2.9967168029 3.0653475414 3.1415926536 3.225752376 2.718901062 2.7598010554 2.8058000847 2.8576792927 2.91630358 
2.9825888767 3.0574329311 3.1415926536 3.5642842451 3.5233842518 3.4524645613 3.4773852225 3.403123212 3.3320300872 
3.4255060145 3.348015857 3.2746326772 3.20576226 3.3668817272 3.2864685043 3.2112816139 3.1415926536 3.0774230472 
3.3005964304 3.2178377658 3.1415926536 3.0719036933 3.00855263 2.95115522 3.225752376 3.1415926536 3.0653475414 
2.9967168029 2.9351694502 2.8800620952 2.8307207459 3.1415926536 3.0574329311 2.9825888767 2.91630358 2.8576792927 
2.8058000847 2.7598010554 2.718901062 4.526799744 4.426884955 4.4046155105 4.3052269283 4.2918546451 4.2807094886 
4.1588146215 4.1588146215 4.1588146215 4.1588146215 3.9875336042 4.0055183285 4.0201070968 4.0321740035 4.042318168 
3.7967995342 3.8356650183 3.8672112905 3.8932795963 3.9151549899 3.9337570603 3.5984456061 3.657329819 3.7058097288 
3.7462412737 3.7803704271 3.809500442 3.8346145692 3.4073543651 3.4813459737 3.5438565869 3.5969754326 3.6424295543 
3.6816134988 3.7156421835 3.7454049075 4.7123889804 4.8004512023 4.6243267584 4.9155579264 4.7123889804 4.5092200343 
5.0674903122 4.8353719722 4.5894059886 4.3572876485 5.2659633393 5.0120975802 4.7123889804 4.4126803806 4.1588146215 
5.5125918794 5.2659633393 4.9155579264 4.5092200343 4.1588146215 3.9121860814 5.7885595667 5.6029703303 5.2659633393 
4.7123889804 4.1588146215 3.8218076305 3.6362183941 6.0560271438 5.9702140275 5.7885595667 5.2659633393 4.1588146215 
3.6362183941 3.4545639333 3.368750817 0.22715816343 0.49462574053 0.3129712797 0.77059342779 0.68021497688 0.49462574053 
1.0172219679 1.0172219679 1.0172219679 1.0172219679 1.2156949949 1.271087727 1.3676273807 1.5707963268 2.1243706857 
1.3676273807 1.447813335 1.5707963268 1.7739652728 2.1243706857 2.6469669131 1.4827341049 1.5707963268 1.6937793186 
1.8705049266 2.1243706857 2.4613776767 2.8286213739 1.5707963268 1.6588585487 1.7739652728 1.9258976586 2.1243706857 
2.3709992258 2.6469669131 2.9144344902 1.7563855631 1.8785697967 1.8563003522 2.0024758186 1.9913306621 1.9779583789 
2.1243706857 2.1243706857 2.1243706857 2.1243706857 2.2408671392 2.2510113037 2.2630782103 2.2776669786 2.295651703 
2.3494282469 2.3680303173 2.3899057108 2.4159740166 2.4475202889 2.486385773 2.448570738 2.4736848652 2.5028148801 
2.5369440334 2.5773755784 2.6258554882 2.6847397011 2.5377803997 2.5675431237 2.6015718084 2.6407557529 2.6862098746 
2.7393287203 2.8018393335 2.8758309421 1.6743954455 1.6743954455 1.7840462375 1.6743954455 1.7840462375 1.8974821136 
1.6743954455 1.7840462375 1.8974821136 2.0119052671 1.6743954455 1.7840462375 1.8974821136 2.0119052671 2.1243706857 
1.6743954455 1.7840462375 1.8974821136 2.0119052671 2.1243706857 2.232221744 1.6743954455 1.7840462375 1.8974821136 
2.0119052671 2.1243706857 2.232221744 2.3334263672 1.6743954455 1.7840462375 1.8974821136 2.0119052671 2.1243706857 
2.232221744 2.3334263672 2.426721652 1.4671972081 1.3575464161 1.4671972081 1.24411054 1.3575464161 1.4671972081 
1.1296873865 1.24411054 1.3575464161 1.4671972081 1.0172219679 1.1296873865 1.24411054 1.3575464161 1.4671972081 
0.90937090954 1.0172219679 1.1296873865 1.24411054 1.3575464161 1.4671972081 0.80816628637 0.90937090954 1.0172219679 
1.1296873865 1.24411054 1.3575464161 1.4671972081 0.71487100155 0.80816628637 0.90937090954 1.0172219679 1.1296873865 
1.24411054 1.3575464161 1.4671972081 0.60381225391 0.57404952988 0.69302191562 0.54002084522 0.66790778838 0.79216440667 
0.50083690068 0.63877777351 0.77356233629 0.90072551443 0.45538277901 0.60464862014 0.75168694275 0.89058134991 1.0172219679 
0.40226393329 0.56421707518 0.72561863695 0.87851444325 1.0172219679 1.139116835 0.33975332011 0.51573716537 0.69407236469 
0.86392567495 1.0172219679 1.1502619915 1.2630228569 0.26576171152 0.45685295248 0.6552068806 0.84594095064 1.0172219679 
1.1636342747 1.2852923014 1.3852070904 0.22715816343 0.3129712797 0.49462574053 0.49462574053 0.68021497688 0.77059342779 
1.0172219679 1.0172219679 1.0172219679 1.0172219679 2.1243706857 1.5707963268 1.3676273807 1.271087727 1.2156949949 
2.6469669131 2.1243706857 1.7739652728 1.5707963268 1.447813335 1.3676273807 2.8286213739 2.4613776767 2.1243706857 
1.8705049266 1.6937793186 1.5707963268 1.4827341049 2.9144344902 2.6469669131 2.3709992258 2.1243706857 1.9258976586 
1.7739652728 1.6588585487 1.5707963268 1.7563855631 1.8563003522 1.8785697967 1.9779583789 1.9913306621 2.0024758186 
2.1243706857 2.1243706857 2.1243706857 2.1243706857 2.295651703 2.2776669786 2.2630782103 2.2510113037 2.2408671392 
2.486385773 2.4475202889 2.4159740166 2.3899057108 2.3680303173 2.3494282469 2.6847397011 2.6258554882 2.5773755784 
2.5369440334 2.5028148801 2.4736848652 2.448570738 2.8758309421 2.8018393335 2.7393287203 2.6862098746 2.6407557529 
2.6015718084 2.5675431237 2.5377803997 5.8604937156 5.901393709 5.9723133995 5.9473927383 6.0216547488 6.0927478736 
5.9992719463 6.0767621038 6.1501452836 6.2190157008 6.0578962336 6.1383094565 6.2134963469 0 0.064169606361 
6.1241815303 6.206940195 6.2831853072 0.069688960264 0.13304002361 0.19043743361 6.1990255847 0 0.07624511221 
0.14487585072 0.20642320337 0.26153055843 0.3108719077 0 0.084159722458 0.15900377685 0.22528907359 0.28391336087 
0.3357925689 0.38179159818 0.42269159155 5.8604937156 5.9723133995 5.901393709 6.0927478736 6.0216547488 5.9473927383 
6.2190157008 6.1501452836 6.0767621038 5.9992719463 0.064169606361 0 6.2134963469 6.1383094565 6.0578962336 
0.19043743361 0.13304002361 0.069688960264 6.2831853072 6.206940195 6.1241815303 0.3108719077 0.26153055843 0.20642320337 
0.14487585072 0.07624511221 6.2831853072 6.1990255847 0.42269159155 0.38179159818 0.3357925689 0.28391336087 0.22528907359 
0.15900377685 0.084159722458 0 5.6793730533 5.7091357773 5.5901633916 5.743164462 5.6152775188 5.4910209005 
5.7823484065 5.6444075337 5.5096229709 5.3824597928 5.8278025282 5.678536687 5.5314983644 5.3926039573 5.2659633393 
5.8809213739 5.718968232 5.5575666702 5.4046708639 5.2659633393 5.1440684722 5.9434319871 5.7674481418 5.5891129425 
5.4192596322 5.2659633393 5.1329233157 5.0201624502 6.0174235957 5.8263323547 5.6279784266 5.4372443565 5.2659633393 
5.1195510325 4.9978930058 4.8979782167 1.3852070904 1.2852923014 1.2630228569 1.1636342747 1.1502619915 1.139116835 
1.0172219679 1.0172219679 1.0172219679 1.0172219679 0.84594095064 0.86392567495 0.87851444325 0.89058134991 0.90072551443 
0.6552068806 0.69407236469 0.72561863695 0.75168694275 0.77356233629 0.79216440667 0.45685295248 0.51573716537 0.56421707518 
0.60464862014 0.63877777351 0.66790778838 0.69302191562 0.26576171152 0.33975332011 0.40226393329 0.45538277901 0.50083690068 
0.54002084522 0.57404952988 0.60381225391 
_paraPhiHalf 1 1002 double
0 3.1415926536 0 3.1415926536 1.5707963268 1.5707963268 1.5707963268 1.5707963268 2.5880182947 
0.5535743589 2.5880182947 0.5535743589 0 0 0 0 3.1415926536 3.1415926536 
3.1415926536 3.1415926536 3.1415926536 0.17788134 0.38438696014 0.60631181711 0.82323535693 1.0172219679 1.1799687454 
1.3118704726 1.4175000338 1.5022335207 0.17788134 0.38438696014 0.60631181711 0.82323535693 1.0172219679 1.1799687454 
1.3118704726 1.4175000338 1.5022335207 0.093902416448 0.17615329733 0.2478725152 0.31035131605 0.36486382811 0.41257334776 
0.45449736604 0.4915044461 0.52432611754 0.093902416448 0.17615329733 0.2478725152 0.31035131605 0.36486382811 0.41257334776 
0.45449736604 0.4915044461 0.52432611754 2.9637113136 2.7572056934 2.5352808365 2.3183572967 2.1243706857 1.9616239082 
1.829722181 1.7240926197 1.6393591329 2.9637113136 2.7572056934 2.5352808365 2.3183572967 2.1243706857 1.9616239082 
1.829722181 1.7240926197 1.6393591329 3.0476902371 2.9654393563 2.8937201384 2.8312413375 2.7767288255 2.7290193058 
2.6870952876 2.6500882075 2.617266536 3.0476902371 2.9654393563 2.8937201384 2.8312413375 2.7767288255 2.7290193058 
2.6870952876 2.6500882075 2.617266536 0 0 0 0 3.1415926536 3.1415926536 
3.1415926536 3.1415926536 3.1415926536 0.17788134 0.38438696014 0.60631181711 0.82323535693 1.0172219679 1.1799687454 
1.3118704726 1.4175000338 1.5022335207 0.17788134 0.38438696014 0.60631181711 0.82323535693 1.0172219679 1.1799687454 
1.3118704726 1.4175000338 1.5022335207 0.093902416448 0.17615329733 0.2478725152 0.31035131605 0.36486382811 0.41257334776 
0.45449736604 0.4915044461 0.52432611754 0.093902416448 0.17615329733 0.2478725152 0.31035131605 0.36486382811 0.41257334776 
0.45449736604 0.4915044461 0.52432611754 2.9637113136 2.7572056934 2.5352808365 2.3183572967 2.1243706857 1.9616239082 
1.829722181 1.7240926197 1.6393591329 2.9637113136 2.7572056934 2.5352808365 2.3183572967 2.1243706857 1.9616239082 
1.829722181 1.7240926197 1.6393591329 3.0476902371 2.9654393563 2.8937201384 2.8312413375 2.7767288255 2.7290193058 
2.6870952876 2.6500882075 2.617266536 3.0476902371 2.9654393563 2.8937201384 2.8312413375 2.7767288255 2.7290193058 
2.6870952876 2.6500882075 2.617266536 1.5707963268 1.5707963268 1.5707963268 1.5707963268 1.5707963268 1.5707963268 
1.5707963268 1.5707963268 1.5707963268 1.6743954455 1.7840462375 1.8974821136 2.0119052671 2.1243706857 2.232221744 
2.3334263672 2.426721652 2.5115728246 1.4671972081 1.3575464161 1.24411054 1.1296873865 1.0172219679 0.90937090954 
0.80816628637 0.71487100155 0.63001982895 1.6743954455 1.7840462375 1.8974821136 2.0119052671 2.1243706857 2.232221744 
2.3334263672 2.426721652 2.5115728246 1.4671972081 1.3575464161 1.24411054 1.1296873865 1.0172219679 0.90937090954 
0.80816628637 0.71487100155 0.63001982895 1.5707963268 1.5707963268 1.5707963268 1.5707963268 1.5707963268 1.5707963268 
1.5707963268 1.5707963268 1.5707963268 1.6743954455 1.7840462375 1.8974821136 2.0119052671 2.1243706857 2.232221744 
2.3334263672 2.426721652 2.5115728246 1.4671972081 1.3575464161 1.24411054 1.1296873865 1.0172219679 0.90937090954 
0.80816628637 0.71487100155 0.63001982895 1.6743954455 1.7840462375 1.8974821136 2.0119052671 2.1243706857 2.232221744 
2.3334263672 2.426721652 2.5115728246 1.4671972081 1.3575464161 1.24411054 1.1296873865 1.0172219679 0.90937090954 
0.80816628637 0.71487100155 0.63001982895 2.6824132222 2.7864913217 2.8992382033 3.0186096618 3.1415926536 3.0186096618 
2.8992382033 2.7864913217 2.6824132222 0.45917943135 0.35510133185 0.2423544503 0.12298299178 0 0.12298299178 
0.2423544503 0.35510133185 0.45917943135 0.22715816343 0.49462574053 0.3129712797 0.77059342779 0.68021497688 0.49462574053 
1.0172219679 1.0172219679 1.0172219679 1.0172219679 1.2156949949 1.271087727 1.3676273807 1.5707963268 2.1243706857 
1.3676273807 1.447813335 1.5707963268 1.7739652728 2.1243706857 2.6469669131 1.4827341049 1.5707963268 1.6937793186 
1.8705049266 2.1243706857 2.4613776767 2.8286213739 1.5707963268 1.6588585487 1.7739652728 1.9258976586 2.1243706857 
2.3709992258 2.6469669131 2.9144344902 0.26576171152 0.33975332011 0.45685295248 0.40226393329 0.51573716537 0.6552068806 
0.45538277901 0.56421707518 0.69407236469 0.84594095064 0.50083690068 0.60464862014 0.72561863695 0.86392567495 1.0172219679 
0.54002084522 0.63877777351 0.75168694275 0.87851444325 1.0172219679 1.1636342747 0.57404952988 0.66790778838 0.77356233629 
0.89058134991 1.0172219679 1.1502619915 1.2852923014 0.60381225391 0.69302191562 0.79216440667 0.90072551443 1.0172219679 
1.139116835 1.2630228569 1.3852070904 0.71487100155 0.80816628637 0.80816628637 0.90937090954 0.90937090954 0.90937090954 
1.0172219679 1.0172219679 1.0172219679 1.0172219679 1.1296873865 1.1296873865 1.1296873865 1.1296873865 1.1296873865 
1.24411054 1.24411054 1.24411054 1.24411054 1.24411054 1.24411054 1.3575464161 1.3575464161 1.3575464161 
1.3575464161 1.3575464161 1.3575464161 1.3575464161 1.4671972081 1.4671972081 1.4671972081 1.4671972081 1.4671972081 
1.4671972081 1.4671972081 1.4671972081 1.6743954455 1.6743954455 1.7840462375 1.6743954455 1.7840462375 1.8974821136 
1.6743954455 1.7840462375 1.8974821136 2.0119052671 1.6743954455 1.7840462375 1.8974821136 2.0119052671 2.1243706857 
1.6743954455 1.7840462375 1.8974821136 2.0119052671 2.1243706857 2.232221744 1.6743954455 1.7840462375 1.8974821136 
2.0119052671 2.1243706857 2.232221744 2.3334263672 1.6743954455 1.7840462375 1.8974821136 2.0119052671 2.1243706857 
2.232221744 2.3334263672 2.426721652 1.7563855631 1.8785697967 1.8563003522 2.0024758186 1.9913306621 1.9779583789 
2.1243706857 2.1243706857 2.1243706857 2.1243706857 2.2408671392 2.2510113037 2.2630782103 2.2776669786 2.295651703 
2.3494282469 2.3680303173 2.3899057108 2.4159740166 2.4475202889 2.486385773 2.448570738 2.4736848652 2.5028148801 
2.5369440334 2.5773755784 2.6258554882 2.6847397011 2.5377803997 2.5675431237 2.6015718084 2.6407557529 2.6862098746 
2.7393287203 2.8018393335 2.8758309421 2.718901062 2.8307207459 2.7598010554 2.95115522 2.8800620952 2.8058000847 
3.0774230472 3.00855263 2.9351694502 2.8576792927 3.0774230472 3.1415926536 3.0719036933 2.9967168029 2.91630358 
2.95115522 3.00855263 3.0719036933 3.1415926536 3.0653475414 2.9825888767 2.8307207459 2.8800620952 2.9351694502 
2.9967168029 3.0653475414 3.1415926536 3.0574329311 2.718901062 2.7598010554 2.8058000847 2.8576792927 2.91630358 
2.9825888767 3.0574329311 3.1415926536 2.718901062 2.7598010554 2.8307207459 2.8058000847 2.8800620952 2.95115522 
2.8576792927 2.9351694502 3.00855263 3.0774230472 2.91630358 2.9967168029 3.0719036933 3.1415926536 3.0774230472 
2.9825888767 3.0653475414 3.1415926536 3.0719036933 3.00855263 2.95115522 3.0574329311 3.1415926536 3.0653475414 