# vtk DataFile Version 5.1
vtk output
ASCII
DATASET POLYDATA
POINTS 1002 float
-10.2458 0.170553 -3.29333 10.686 -1.16396 -2.87705 -9.78567 0.710904 3.44649 
9.75277 -0.958677 2.10555 -2.98563 2.70706 -2.19331 -2.22775 1.93637 1.41697 
-0.998259 -6.43723 -1.73162 -0.554404 -7.28442 2.24722 18.9233 9.00314 1.01234 
-15.1096 7.78827 0.638165 17.1473 -1.22134 -0.154455 -15.2468 -3.88881 -0.129959 
-9.16422 -0.206407 -3.33937 -7.85623 -0.674487 -3.37752 -6.21415 -1.19746 -3.31426 
-4.20289 -1.74916 -3.08732 -1.80502 -2.28634 -2.8255 0.976801 -2.65914 -2.72039 
3.89293 -2.69913 -2.7782 6.56709 -2.39116 -2.87562 8.82675 -1.84141 -2.91846 
-10.0399 0.681169 -3.43345 -9.69065 1.22457 -3.53998 -9.12689 1.82519 -3.49911 
-8.41648 2.38769 -3.39799 -7.56562 2.79158 -3.41705 -6.53734 3.04413 -3.42966 
-5.5543 3.20476 -3.19615 -4.77095 3.25602 -2.80517 -3.97497 3.10454 -2.4624 
-9.75262 -0.591189 -3.20417 -9.13795 -1.44183 -3.14225 -8.38746 -2.31018 -3.06017 
-7.5133 -3.10513 -2.85849 -6.49298 -3.82409 -2.57849 -5.32594 -4.51059 -2.35495 
-4.12612 -5.13581 -2.18298 -2.99551 -5.65108 -2.00619 -1.95005 -6.07372 -1.84931 
-11.1704 0.847573 -3.304 -12.1619 1.61044 -3.23447 -13.1669 2.48489 -3.08485 
-14.0917 3.47759 -2.88354 -14.8756 4.52541 -2.5723 -15.429 5.46439 -2.0727 
-15.6685 6.20799 -1.40965 -15.6476 6.84882 -0.669452 -15.4531 7.41546 0.0419513 
-11.025 -0.00440684 -3.22565 -11.8872 -0.294102 -3.18564 -12.703 -0.644877 -3.06828 
-13.3958 -1.04104 -2.83296 -14.0539 -1.50397 -2.5331 -14.6243 -1.96012 -2.13667 
-14.9583 -2.38438 -1.62302 -15.1362 -2.88531 -1.10173 -15.2521 -3.44164 -0.620479 
10.2421 -0.884231 -2.84303 9.62784 -0.643505 -2.76984 8.77246 -0.435924 -2.6871 
7.5744 -0.328329 -2.59426 6.02024 -0.385251 -2.46211 4.10618 -0.417312 -2.29771 
1.87063 -0.108726 -2.15581 -0.305718 0.619487 -2.1029 -1.94878 1.62195 -2.14309 
9.92063 -1.92484 -2.92106 8.95884 -2.6812 -2.92446 7.79865 -3.40541 -2.87915 
6.46413 -4.10524 -2.80629 5.02822 -4.71457 -2.7151 3.6032 -5.18264 -2.55869 
2.27267 -5.57706 -2.33275 1.0632 -5.93203 -2.109 -0.0252682 -6.21695 -1.91738 
12.1528 -0.167851 -2.76105 13.6378 0.980266 -2.5948 15.1062 2.24281 -2.39247 
16.4385 3.68887 -2.12397 17.558 5.25654 -1.72592 18.5105 6.6377 -1.19158 
19.1944 7.70571 -0.588651 19.4184 8.53468 0.00610751 19.255 9.01799 0.546252 
11.9339 -0.904548 -2.79833 13.1237 -0.65177 -2.67271 14.2735 -0.404683 -2.5471 
15.4014 -0.155408 -2.38618 16.3721 0.0331467 -2.10493 17.0094 0.0731794 -1.73069 
17.3433 -0.0762921 -1.34328 17.4863 -0.403313 -0.948552 17.4299 -0.820183 -0.541246 
-8.61172 0.262969 3.51355 -7.28764 -0.255397 3.52519 -5.69832 -0.871141 3.43074 
-3.75257 -1.55541 3.21706 -1.53221 -2.17047 2.94069 0.883896 -2.53517 2.63529 
3.41781 -2.5269 2.32935 5.8246 -2.16885 2.12439 7.92624 -1.60437 2.07055 
-9.30605 1.1704 3.44804 -8.73122 1.59313 3.39583 -8.10724 1.96777 3.21786 
-7.4225 2.30574 3.00249 -6.60154 2.52243 2.82718 -5.69889 2.57443 2.58241 
-4.83754 2.5349 2.24077 -3.99898 2.41218 1.93173 -3.12097 2.19122 1.67925 
-9.48871 -0.0110541 3.5556 -9.09677 -0.726526 3.72824 -8.51167 -1.50844 3.78659 
-7.59735 -2.49907 3.598 -6.40357 -3.60832 3.32761 -5.09666 -4.57765 3.14778 
-3.73079 -5.38778 2.96913 -2.41399 -6.15502 2.73379 -1.34483 -6.82656 2.49687 
-10.6469 1.45634 3.36483 -11.4896 2.25343 3.26335 -12.2598 3.04264 3.07148 
-13.019 3.8453 2.80774 -13.7786 4.67307 2.55887 -14.3649 5.45441 2.27957 
-14.7334 6.2117 1.88931 -15.0096 6.96652 1.46257 -15.1695 7.54185 1.06224 
-10.7744 0.662182 3.3889 -11.8266 0.537777 3.31102 -12.9227 0.255935 3.16882 
-13.999 -0.253777 2.86892 -14.9183 -0.901101 2.4179 -15.5583 -1.55764 1.94976 
-15.8755 -2.28114 1.48899 -15.8844 -3.05806 0.953815 -15.6463 -3.64204 0.377726 
9.10176 -0.821369 2.05316 8.26854 -0.709797 1.9956 7.21412 -0.636085 1.93108 
5.92374 -0.610112 1.86379 4.43011 -0.568704 1.8058 2.84978 -0.400521 1.7246 
1.33855 -0.0529099 1.60416 -0.0217297 0.471754 1.51144 -1.2144 1.15541 1.47011 
9.20432 -1.56863 2.10479 8.49705 -2.28415 2.08406 7.62126 -3.06062 2.06803 
6.63608 -3.80597 2.07851 5.53301 -4.52089 2.1207 4.26308 -5.2223 2.1754 
2.95515 -5.82924 2.21887 1.74481 -6.34596 2.25487 0.58739 -6.84525 2.27709 
11.1818 -0.112839 2.13249 12.7341 0.938912 2.20023 14.2997 2.20485 2.38148 
15.7434 3.60671 2.62883 17.0375 5.00504 2.74448 18.1041 6.29929 2.64988 
18.7671 7.47376 2.4343 19.0338 8.44056 2.09655 19.0586 8.98392 1.5926 
11.2109 -0.617797 2.17216 12.6817 -0.258815 2.2095 13.9958 0.0364265 2.16666 
15.0837 0.180188 2.02331 16.0077 0.167567 1.78887 16.6954 0.0578032 1.50127 
17.0399 -0.159327 1.17474 17.1694 -0.510046 0.778505 17.2201 -0.90026 0.318509 
-2.81716 3.0126 -1.99815 -2.72466 3.22282 -1.66803 -2.72835 3.37095 -1.25591 
-2.67145 3.44387 -0.840136 -2.49219 3.38161 -0.377609 -2.34795 3.21406 0.115544 
-2.30712 2.98888 0.518813 -2.2877 2.67867 0.845434 -2.25595 2.30193 1.15634 
-1.00928 1.50225 -1.9079 1.68613 0.625255 -1.63592 4.69022 0.706243 -1.44202 
7.75698 1.77279 -1.28142 10.8205 3.23523 -1.01369 13.4311 4.6409 -0.626273 
15.3173 5.90831 -0.247645 16.7931 7.09131 0.104635 18.0299 8.18372 0.523276 
-4.26187 4.1166 -2.33297 -5.36187 5.39223 -2.32715 -6.59264 6.36521 -2.12765 
-7.97414 7.01891 -1.75063 -9.38262 7.42443 -1.30427 -10.7501 7.72463 -0.934177 
-12.0268 7.97839 -0.582443 -13.2149 8.11503 -0.120585 -14.2789 8.06261 0.341232 
-0.610232 1.22682 1.16143 1.37133 0.753891 0.910802 3.81625 0.831374 0.800713 
6.73048 1.57778 0.843848 9.71101 2.72138 0.929394 12.2942 3.94306 1.04588 
14.5132 5.25618 1.16877 16.456 6.72031 1.19047 17.9367 8.08465 1.1175 
-3.66786 2.98468 1.49075 -5.01454 4.15138 1.55574 -6.29959 5.32999 1.69217 
-7.61633 6.42552 1.89503 -8.93294 7.2869 2.00359 -10.2185 7.79718 1.89538 
-11.5717 8.06437 1.6365 -12.9472 8.21093 1.33819 -14.1536 8.14473 1.01394 
-1.01738 -6.78035 -1.52006 -1.05741 -7.14283 -1.2536 -1.1357 -7.52825 -0.934922 
-1.24047 -7.91553 -0.520895 -1.3105 -8.17621 0.00464474 -1.32297 -8.19907 0.557374 
-1.28172 -8.07958 1.08425 -1.12862 -7.92372 1.57792 -0.850456 -7.67352 1.97889 
0.558924 -6.63169 -1.75533 2.33029 -6.73261 -1.7891 4.31252 -6.7145 -1.82167 
6.33353 -6.65493 -1.86281 8.31373 -6.42253 -1.87746 10.545 -5.62394 -1.74683 
13.0164 -4.31698 -1.42003 15.0822 -3.04954 -0.992175 16.3726 -2.06606 -0.560174 
-2.54161 -6.42174 -1.60619 -4.20608 -6.3981 -1.48691 -5.89657 -6.31793 -1.38474 
-7.52185 -6.14658 -1.27258 -9.10031 -5.95501 -1.13148 -10.6451 -5.72305 -1.00077 
-12.0662 -5.3225 -0.856733 -13.2956 -4.82055 -0.635219 -14.349 -4.35809 -0.37204 
0.931543 -7.27832 1.94065 2.76434 -7.09335 1.5146 4.96202 -6.86188 1.11686 
7.25223 -6.60885 0.875702 9.45031 -6.15792 0.71484 11.5744 -5.35518 0.530257 
13.5237 -4.27622 0.340356 15.1057 -3.15294 0.15944 16.274 -2.13763 -0.012583 
-2.19815 -7.35181 2.29453 -4.03499 -7.23326 2.23943 -5.99381 -7.05326 2.13562 
-8.01874 -6.8636 2.00838 -9.95033 -6.55508 1.83597 -11.4762 -6.1267 1.5976 
-12.6099 -5.66333 1.24111 -13.6261 -5.14537 0.761619 -14.5438 -4.54458 0.274778 
19.8014 9.49774 1.22433 20.7046 9.21519 1.30242 21.6302 8.12229 1.18104 
22.0576 6.67636 0.984989 21.6977 5.30863 0.832302 21.0285 4.01803 0.662605 
20.2828 2.6741 0.442992 19.2597 1.27966 0.227732 18.1197 -0.0582622 0.0279473 
-16.0312 7.11039 0.46099 -16.8754 6.18464 0.23804 -17.5328 5.07542 0.0698864 
-17.8699 3.80604 -0.0698793 -17.9309 2.42533 -0.272468 -17.8336 0.971374 -0.471138 
-17.5149 -0.533923 -0.51067 -16.9074 -1.93085 -0.390667 -16.109 -3.04813 -0.238092 
-8.85606 0.25285 -3.50455 -8.35349 0.761109 -3.57035 -7.38668 -0.253682 -3.49599 
-7.68176 1.29525 -3.4809 -6.76484 0.213077 -3.47922 -5.5534 -0.836195 -3.32892 
-6.88183 1.73693 -3.41359 -6.06013 0.641936 -3.35205 -4.83575 -0.485809 -3.23983 
-3.30767 -1.5144 -3.04531 -5.89314 2.02598 -3.42726 -5.1646 0.939091 -3.23832 
-3.97573 -0.233027 -3.05709 -2.28278 -1.33291 -2.95295 -0.53704 -2.13907 -2.82562 
-4.88052 2.15408 -3.26569 -4.04764 1.05524 -3.08751 -2.76202 -0.109212 -2.82686 
-0.914108 -1.17921 -2.75192 1.03097 -1.94411 -2.78315 2.62804 -2.39281 -2.76842 
-4.03636 2.11426 -2.85767 -2.91621 0.96052 -2.77958 -1.30212 -0.129395 -2.60093 
0.754848 -1.00293 -2.53775 2.84666 -1.57692 -2.65277 4.49277 -1.91967 -2.76027 
5.65972 -2.15918 -2.81226 -3.13033 1.92931 -2.43957 -1.71503 0.768492 -2.40177 
0.25162 -0.194538 -2.37902 2.45951 -0.78061 -2.41712 4.54981 -1.03169 -2.54815 
6.22143 -1.1881 -2.69255 7.37841 -1.37744 -2.78492 8.1925 -1.59668 -2.85805 
-10.9741 1.46934 -3.4117 -11.959 2.35663 -3.30402 -10.5857 2.14817 -3.45906 
-12.9086 3.33362 -3.11869 -11.4941 3.14594 -3.31236 -9.96013 2.86269 -3.3767 
-13.7443 4.39782 -2.81189 -12.3316 4.16127 -3.06312 -10.7885 3.91192 -3.21684 
-9.2162 3.46787 -3.29852 -14.3871 5.46976 -2.32983 -13.0276 5.22893 -2.61227 
-11.4904 4.92244 -2.90049 -9.98676 4.5492 -3.11458 -8.30003 3.87253 -3.30404 
-14.6929 6.36698 -1.72389 -13.4527 6.27967 -2.01948 -11.9578 5.95801 -2.3554 
-10.4993 5.59972 -2.71509 -8.94452 5.02225 -3.00926 -7.1386 4.14563 -3.20013 
-14.6808 7.05887 -1.04371 -13.5285 7.10881 -1.4114 -12.1467 6.89171 -1.73835 
-10.6979 6.55814 -2.11987 -9.2538 6.11444 -2.52515 -7.6062 5.34755 -2.81372 
-6.01296 4.35045 -2.91598 -14.5239 7.63849 -0.324255 -13.4058 7.69524 -0.77694 
-12.1369 7.54512 -1.15834 -10.7477 7.25955 -1.49692 -9.32631 6.92271 -1.91842 
-7.83372 6.37439 -2.32698 -6.33956 5.5057 -2.57066 -5.10641 4.39096 -2.60674 
-13.1778 8.34208 0.644641 -11.8302 8.37439 0.916732 -11.9966 8.3075 0.12852 
-10.4 8.28444 1.23495 -10.5978 8.39703 0.413587 -10.7494 8.13251 -0.328378 
-9.07424 7.97558 1.54969 -9.18116 8.38359 0.7894 -9.33344 8.28385 -0.0258867 
-9.41946 7.85835 -0.70526 -7.80034 7.19075 1.63916 -7.86062 7.90633 1.10804 
-7.90197 8.19015 0.318193 -7.9884 7.90478 -0.466862 -8.0122 7.44128 -1.14411 
-6.48571 6.01614 1.461 -6.57666 6.8056 1.14044 -6.56423 7.43862 0.558486 
-6.60501 7.52517 -0.204233 -6.6798 7.19102 -0.939977 -6.65604 6.80983 -1.59227 
-5.15168 4.73147 1.26502 -5.25219 5.40024 0.977139 -5.26281 6.07414 0.584873 
[...]
POINT_DATA 1002
FIELD FieldData 4
_paraPhi 1 1002 double
6.2831853072 3.1415926536 6.2831853072 3.1415926536 4.7123889804 4.7123889804 1.5707963268 1.5707963268 3.6951670125 
5.7296109483 2.5880182947 0.5535743589 6.2831853072 6.2831853072 6.2831853072 6.2831853072 3.1415926536 3.1415926536 
3.1415926536 3.1415926536 3.1415926536 6.1053039672 5.898798347 5.6768734901 5.4599499503 5.2659633393 5.1032165617 
4.9713148346 4.8656852733 4.7809517865 0.17788134 0.38438696014 0.60631181711 0.82323535693 1.0172219679 1.1799687454 
1.3118704726 1.4175000338 1.5022335207 6.1892828907 6.1070320098 6.035312792 5.9728339911 5.9183214791 5.8706119594 
5.8286879411 5.7916808611 5.7588591896 0.093902416448 0.17615329733 0.2478725152 0.31035131605 0.36486382811 0.41257334776 
0.45449736604 0.4915044461 0.52432611754 3.3194739936 3.5259796137 3.7479044707 3.9648280105 4.1588146215 4.321561399 
4.4534631262 4.5590926874 4.6438261743 2.9637113136 2.7572056934 2.5352808365 2.3183572967 2.1243706857 1.9616239082 
1.829722181 1.7240926197 1.6393591329 3.23549507 3.3177459509 3.3894651688 3.4519439696 3.5064564817 3.5541660013 
3.5960900196 3.6330970997 3.6659187711 3.0476902371 2.9654393563 2.8937201384 2.8312413375 2.7767288255 2.7290193058 
2.6870952876 2.6500882075 2.617266536 6.2831853072 6.2831853072 6.2831853072 6.2831853072 3.1415926536 3.1415926536 
3.1415926536 3.1415926536 3.1415926536 6.1053039672 5.898798347 5.6768734901 5.4599499503 5.2659633393 5.1032165617 
4.9713148346 4.8656852733 4.7809517865 0.17788134 0.38438696014 0.60631181711 0.82323535693 1.0172219679 1.1799687454 
1.3118704726 1.4175000338 1.5022335207 6.1892828907 6.1070320098 6.035312792 5.9728339911 5.9183214791 5.8706119594 
5.8286879411 5.7916808611 5.7588591896 0.093902416448 0.17615329733 0.2478725152 0.31035131605 0.36486382811 0.41257334776 
0.45449736604 0.4915044461 0.52432611754 3.3194739936 3.5259796137 3.7479044707 3.9648280105 4.1588146215 4.321561399 
4.4534631262 4.5590926874 4.6438261743 2.9637113136 2.7572056934 2.5352808365 2.3183572967 2.1243706857 1.9616239082 
1.829722181 1.7240926197 1.6393591329 3.23549507 3.3177459509 3.3894651688 3.4519439696 3.5064564817 3.5541660013 
3.5960900196 3.6330970997 3.6659187711 3.0476902371 2.9654393563 2.8937201384 2.8312413375 2.7767288255 2.7290193058 
2.6870952876 2.6500882075 2.617266536 4.7123889804 4.7123889804 4.7123889804 4.7123889804 4.7123889804 4.7123889804 
4.7123889804 4.7123889804 4.7123889804 4.6087898617 4.4991390697 4.3857031936 4.2712800401 4.1588146215 4.0509635631 
3.94975894 3.8564636551 3.7716124825 4.8159880991 4.9256388911 5.0390747672 5.1534979207 5.2659633393 5.3738143976 
5.4750190208 5.5683143056 5.6531654782 4.6087898617 4.4991390697 4.3857031936 4.2712800401 4.1588146215 4.0509635631 
3.94975894 3.8564636551 3.7716124825 4.8159880991 4.9256388911 5.0390747672 5.1534979207 5.2659633393 5.3738143976 
5.4750190208 5.5683143056 5.6531654782 1.5707963268 1.5707963268 1.5707963268 1.5707963268 1.5707963268 1.5707963268 
1.5707963268 1.5707963268 1.5707963268 1.6743954455 1.7840462375 1.8974821136 2.0119052671 2.1243706857 2.232221744 
2.3334263672 2.426721652 2.5115728246 1.4671972081 1.3575464161 1.24411054 1.1296873865 1.0172219679 0.90937090954 
0.80816628637 0.71487100155 0.63001982895 1.6743954455 1.7840462375 1.8974821136 2.0119052671 2.1243706857 2.232221744 
2.3334263672 2.426721652 2.5115728246 1.4671972081 1.3575464161 1.24411054 1.1296873865 1.0172219679 0.90937090954 
0.80816628637 0.71487100155 0.63001982895 3.6007720849 3.4966939854 3.3839471039 3.2645756454 3.1415926536 3.0186096618 
2.8992382033 2.7864913217 2.6824132222 5.8240058758 5.9280839753 6.0408308569 6.1602023154 6.2831853072 0.12298299178 
0.2423544503 0.35510133185 0.45917943135 6.0560271438 5.7885595667 5.9702140275 5.5125918794 5.6029703303 5.7885595667 
5.2659633393 5.2659633393 5.2659633393 5.2659633393 5.0674903122 5.0120975802 4.9155579264 4.7123889804 4.1588146215 
4.9155579264 4.8353719722 4.7123889804 4.5092200343 4.1588146215 3.6362183941 4.8004512023 4.7123889804 4.5894059886 
4.4126803806 4.1588146215 3.8218076305 3.4545639333 4.7123889804 4.6243267584 4.5092200343 4.3572876485 4.1588146215 
3.9121860814 3.6362183941 3.368750817 6.0174235957 5.9434319871 5.8263323547 5.8809213739 5.7674481418 5.6279784266 
5.8278025282 5.718968232 5.5891129425 5.4372443565 5.7823484065 5.678536687 5.5575666702 5.4192596322 5.2659633393 
5.743164462 5.6444075337 5.5314983644 5.4046708639 5.2659633393 5.1195510325 5.7091357773 5.6152775188 5.5096229709 
5.3926039573 5.2659633393 5.1329233157 4.9978930058 5.6793730533 5.5901633916 5.4910209005 5.3824597928 5.2659633393 
5.1440684722 5.0201624502 4.8979782167 5.5683143056 5.4750190208 5.4750190208 5.3738143976 5.3738143976 5.3738143976 
5.2659633393 5.2659633393 5.2659633393 5.2659633393 5.1534979207 5.1534979207 5.1534979207 5.1534979207 5.1534979207 
5.0390747672 5.0390747672 5.0390747672 5.0390747672 5.0390747672 5.0390747672 4.9256388911 4.9256388911 4.9256388911 
4.9256388911 4.9256388911 4.9256388911 4.9256388911 4.8159880991 4.8159880991 4.8159880991 4.8159880991 4.8159880991 
4.8159880991 4.8159880991 4.8159880991 4.6087898617 4.6087898617 4.4991390697 4.6087898617 4.4991390697 4.3857031936 
4.6087898617 4.4991390697 4.3857031936 4.2712800401 4.6087898617 4.4991390697 4.3857031936 4.2712800401 4.1588146215 
4.6087898617 4.4991390697 4.3857031936 4.2712800401 4.1588146215 4.0509635631 4.6087898617 4.4991390697 4.3857031936 
4.2712800401 4.1588146215 4.0509635631 3.94975894 4.6087898617 4.4991390697 4.3857031936 4.2712800401 4.1588146215 
4.0509635631 3.94975894 3.8564636551 4.526799744 4.4046155105 4.426884955 4.2807094886 4.2918546451 4.3052269283 
4.1588146215 4.1588146215 4.1588146215 4.1588146215 4.042318168 4.0321740035 4.0201070968 4.0055183285 3.9875336042 
3.9337570603 3.9151549899 3.8932795963 3.8672112905 3.8356650183 3.7967995342 3.8346145692 3.809500442 3.7803704271 
3.7462412737 3.7058097288 3.657329819 3.5984456061 3.7454049075 3.7156421835 3.6816134988 3.6424295543 3.5969754326 
3.5438565869 3.4813459737 3.4073543651 3.5642842451 3.4524645613 3.5233842518 3.3320300872 3.403123212 3.4773852225 
3.20576226 3.2746326772 3.348015857 3.4255060145 3.0774230472 3.1415926536 3.2112816139 3.2864685043 3.3668817272 
2.95115522 3.00855263 3.0719036933 3.1415926536 3.2178377658 3.3005964304 2.8307207459 2.8800620952 2.9351694502 
2.9967168029 3.0653475414 3.1415926536 3.225752376 2.718901062 2.7598010554 2.8058000847 2.8576792927 2.91630358 
2.9825888767 3.0574329311 3.1415926536 3.5642842451 3.5233842518 3.4524645613 3.4773852225 3.403123212 3.3320300872 
3.4255060145 3.348015857 3.2746326772 3.20576226 3.3668817272 3.2864685043 3.2112816139 3.1415926536 3.0774230472 
3.3005964304 3.2178377658 3.1415926536 3.0719036933 3.00855263 2.95115522 3.225752376 3.1415926536 3.0653475414 
2.9967168029 2.9351694502 2.8800620952 2.8307207459 3.1415926536 3.0574329311 2.9825888767 2.91630358 2.8576792927 
2.8058000847 2.7598010554 2.718901062 4.526799744 4.426884955 4.4046155105 4.3052269283 4.2918546451 4.2807094886 
4.1588146215 4.1588146215 4.1588146215 4.1588146215 3.9875336042 4.0055183285 4.0201070968 4.0321740035 4.042318168 
3.7967995342 3.8356650183 3.8672112905 3.8932795963 3.9151549899 3.9337570603 3.5984456061 3.657329819 3.7058097288 
3.7462412737 3.7803704271 3.809500442 3.8346145692 3.4073543651 3.4813459737 3.5438565869 3.5969754326 3.6424295543 
3.6816134988 3.7156421835 3.7454049075 4.7123889804 4.8004512023 4.6243267584 4.9155579264 4.7123889804 4.5092200343 
5.0674903122 4.8353719722 4.5894059886 4.3572876485 5.2659633393 5.0120975802 4.7123889804 4.4126803806 4.1588146215 
5.5125918794 5.2659633393 4.9155579264 4.5092200343 4.1588146215 3.9121860814 5.7885595667 5.6029703303 5.2659633393 
4.7123889804 4.1588146215 3.8218076305 3.6362183941 6.0560271438 5.9702140275 5.7885595667 5.2659633393 4.1588146215 
3.6362183941 3.4545639333 3.368750817 0.22715816343 0.49462574053 0.3129712797 0.77059342779 0.68021497688 0.49462574053 
1.0172219679 1.0172219679 1.0172219679 1.0172219679 1.2156949949 1.271087727 1.3676273807 1.5707963268 2.1243706857 
1.3676273807 1.447813335 1.5707963268 1.7739652728 2.1243706857 2.6469669131 1.4827341049 1.5707963268 1.6937793186 
1.8705049266 2.1243706857 2.4613776767 2.8286213739 1.5707963268 1.6588585487 1.7739652728 1.9258976586 2.1243706857 
2.3709992258 2.6469669131 2.9144344902 1.7563855631 1.8785697967 1.8563003522 2.0024758186 1.9913306621 1.9779583789 
2.1243706857 2.1243706857 2.1243706857 2.1243706857 2.2408671392 2.2510113037 2.2630782103 2.2776669786 2.295651703 
2.3494282469 2.3680303173 2.3899057108 2.4159740166 2.4475202889 2.486385773 2.448570738 2.4736848652 2.5028148801 
2.5369440334 2.5773755784 2.6258554882 2.6847397011 2.5377803997 2.5675431237 2.6015718084 2.6407557529 2.6862098746 
2.7393287203 2.8018393335 2.8758309421 1.6743954455 1.6743954455 1.7840462375 1.6743954455 1.7840462375 1.8974821136 
1.6743954455 1.7840462375 1.8974821136 2.0119052671 1.6743954455 1.7840462375 1.8974821136 2.0119052671 2.1243706857 
1.6743954455 1.7840462375 1.8974821136 2.0119052671 2.1243706857 2.232221744 1.6743954455 1.7840462375 1.8974821136 
2.0119052671 2.1243706857 2.232221744 2.3334263672 1.6743954455 1.7840462375 1.8974821136 2.0119052671 2.1243706857 
2.232221744 2.3334263672 2.426721652 1.4671972081 1.3575464161 1.4671972081 1.24411054 1.3575464161 1.4671972081 
1.1296873865 1.24411054 1.3575464161 1.4671972081 1.0172219679 1.1296873865 1.24411054 1.3575464161 1.4671972081 
0.90937090954 1.0172219679 1.1296873865 1.24411054 1.3575464161 1.4671972081 0.80816628637 0.90937090954 1.0172219679 
1.1296873865 1.24411054 1.3575464161 1.4671972081 0.71487100155 0.80816628637 0.90937090954 1.0172219679 1.1296873865 
1.24411054 1.3575464161 1.4671972081 0.60381225391 0.57404952988 0.69302191562 0.54002084522 0.66790778838 0.79216440667 
0.50083690068 0.63877777351 0.77356233629 0.90072551443 0.45538277901 0.60464862014 0.75168694275 0.89058134991 1.0172219679 
0.40226393329 0.56421707518 0.72561863695 0.87851444325 1.0172219679 1.139116835 0.33975332011 0.51573716537 0.69407236469 
0.86392567495 1.0172219679 1.1502619915 1.2630228569 0.26576171152 0.45685295248 0.6552068806 0.84594095064 1.0172219679 
1.1636342747 1.2852923014 1.3852070904 0.22715816343 0.3129712797 0.49462574053 0.49462574053 0.68021497688 0.77059342779 
1.0172219679 1.0172219679 1.0172219679 1.0172219679 2.1243706857 1.5707963268 1.3676273807 1.271087727 1.2156949949 
2.6469669131 2.1243706857 1.7739652728 1.5707963268 1.447813335 1.3676273807 2.8286213739 2.4613776767 2.1243706857 
1.8705049266 1.6937793186 1.5707963268 1.4827341049 2.9144344902 2.6469669131 2.3709992258 2.1243706857 1.9258976586 
1.7739652728 1.6588585487 1.5707963268 1.7563855631 1.8563003522 1.8785697967 1.9779583789 1.9913306621 2.0024758186 
2.1243706857 2.1243706857 2.1243706857 2.1243706857 2.295651703 2.2776669786 2.2630782103 2.2510113037 2.2408671392 
2.486385773 2.4475202889 2.4159740166 2.3899057108 2.3680303173 2.3494282469 2.6847397011 2.6258554882 2.5773755784 
2.5369440334 2.5028148801 2.4736848652 2.448570738 2.8758309421 2.8018393335 2.7393287203 2.6862098746 2.6407557529 
2.6015718084 2.5675431237 2.5377803997 5.8604937156 5.901393709 5.9723133995 5.9473927383 6.0216547488 6.0927478736 
5.9992719463 6.0767621038 6.1501452836 6.2190157008 6.0578962336 6.1383094565 6.2134963469 0 0.064169606361 
6.1241815303 6.206940195 6.2831853072 0.069688960264 0.13304002361 0.19043743361 6.1990255847 0 0.07624511221 
0.14487585072 0.20642320337 0.26153055843 0.3108719077 0 0.084159722458 0.15900377685 0.22528907359 0.28391336087 
0.3357925689 0.38179159818 0.42269159155 5.8604937156 5.9723133995 5.901393709 6.0927478736 6.0216547488 5.9473927383 
6.2190157008 6.1501452836 6.0767621038 5.9992719463 0.064169606361 0 6.2134963469 6.1383094565 6.0578962336 
0.19043743361 0.13304002361 0.069688960264 6.2831853072 6.206940195 6.1241815303 0.3108719077 0.26153055843 0.20642320337 
0.14487585072 0.07624511221 6.2831853072 6.1990255847 0.42269159155 0.38179159818 0.3357925689 0.28391336087 0.22528907359 
0.15900377685 0.084159722458 0 5.6793730533 5.7091357773 5.5901633916 5.743164462 5.6152775188 5.4910209005 
5.7823484065 5.6444075337 5.5096229709 5.3824597928 5.8278025282 5.678536687 5.5314983644 5.3926039573 5.2659633393 
5.8809213739 5.718968232 5.5575666702 5.4046708639 5.2659633393 5.1440684722 5.9434319871 5.7674481418 5.5891129425 
5.4192596322 5.2659633393 5.1329233157 5.0201624502 6.0174235957 5.8263323547 5.6279784266 5.4372443565 5.2659633393 
5.1195510325 4.9978930058 4.8979782167 1.3852070904 1.2852923014 1.2630228569 1.1636342747 1.1502619915 1.139116835 
1.0172219679 1.0172219679 1.0172219679 1.0172219679 0.84594095064 0.86392567495 0.87851444325 0.89058134991 0.90072551443 
0.6552068806 0.69407236469 0.72561863695 0.75168694275 0.77356233629 0.79216440667 0.45685295248 0.51573716537 0.56421707518 
0.60464862014 0.63877777351 0.66790778838 0.69302191562 0.26576171152 0.33975332011 0.40226393329 0.45538277901 0.50083690068 
0.54002084522 0.57404952988 0.60381225391 
_paraPhiHalf 1 1002 double
0 3.1415926536 0 3.1415926536 1.5707963268 1.5707963268 1.5707963268 1.5707963268 2.5880182947 
0.5535743589 2.5880182947 0.5535743589 0 0 0 0 3.1415926536 3.1415926536 
3.1415926536 3.1415926536 3.1415926536 0.17788134 0.38438696014 0.60631181711 0.82323535693 1.0172219679 1.1799687454 
1.3118704726 1.4175000338 1.5022335207 0.17788134 0.38438696014 0.60631181711 0.82323535693 1.0172219679 1.1799687454 
1.3118704726 1.4175000338 1.5022335207 0.093902416448 0.17615329733 0.2478725152 0.31035131605 0.36486382811 0.41257334776 
0.45449736604 0.4915044461 0.52432611754 0.093902416448 0.17615329733 0.2478725152 0.31035131605 0.36486382811 0.41257334776 
0.45449736604 0.4915044461 0.52432611754 2.9637113136 2.7572056934 2.5352808365 2.3183572967 2.1243706857 1.9616239082 
1.829722181 1.7240926197 1.6393591329 2.9637113136 2.7572056934 2.5352808365 2.3183572967 2.1243706857 1.9616239082 
1.829722181 1.7240926197 1.6393591329 3.0476902371 2.9654393563 2.8937201384 2.8312413375 2.7767288255 2.7290193058 
2.6870952876 2.6500882075 2.617266536 3.0476902371 2.9654393563 2.8937201384 2.8312413375 2.7767288255 2.7290193058 
2.6870952876 2.6500882075 2.617266536 0 0 0 0 3.1415926536 3.1415926536 
3.1415926536 3.1415926536 3.1415926536 0.17788134 0.38438696014 0.60631181711 0.82323535693 1.0172219679 1.1799687454 
1.3118704726 1.4175000338 1.5022335207 0.17788134 0.38438696014 0.60631181711 0.82323535693 1.0172219679 1.1799687454 
1.3118704726 1.4175000338 1.5022335207 0.093902416448 0.17615329733 0.2478725152 0.31035131605 0.36486382811 0.41257334776 
0.45449736604 0.4915044461 0.52432611754 0.093902416448 0.17615329733 0.2478725152 0.31035131605 0.36486382811 0.41257334776 
0.45449736604 0.4915044461 0.52432611754 2.9637113136 2.7572056934 2.5352808365 2.3183572967 2.1243706857 1.9616239082 
1.829722181 1.7240926197 1.6393591329 2.9637113136 2.7572056934 2.5352808365 2.3183572967 2.1243706857 1.9616239082 
1.829722181 1.7240926197 1.6393591329 3.0476902371 2.9654393563 2.8937201384 2.8312413375 2.7767288255 2.7290193058 
2.6870952876 2.6500882075 2.617266536 3.0476902371 2.9654393563 2.8937201384 2.8312413375 2.7767288255 2.7290193058 
2.6870952876 2.6500882075 2.617266536 1.5707963268 1.5707963268 1.5707963268 1.5707963268 1.5707963268 1.5707963268 
1.5707963268 1.5707963268 1.5707963268 1.6743954455 1.7840462375 1.8974821136 2.0119052671 2.1243706857 2.232221744 
2.3334263672 2.426721652 2.5115728246 1.4671972081 1.3575464161 1.24411054 1.1296873865 1.0172219679 0.90937090954 
0.80816628637 0.71487100155 0.63001982895 1.6743954455 1.7840462375 1.8974821136 2.0119052671 2.1243706857 2.232221744 
2.3334263672 2.426721652 2.5115728246 1.4671972081 1.3575464161 1.24411054 1.1296873865 1.0172219679 0.90937090954 
0.80816628637 0.71487100155 0.63001982895 1.5707963268 1.5707963268 1.5707963268 1.5707963268 1.5707963268 1.5707963268 
1.5707963268 1.5707963268 1.5707963268 1.6743954455 1.7840462375 1.8974821136 2.0119052671 2.1243706857 2.232221744 
2.3334263672 2.426721652 2.5115728246 1.4671972081 1.3575464161 1.24411054 1.1296873865 1.0172219679 0.90937090954 
0.80816628637 0.71487100155 0.63001982895 1.6743954455 1.7840462375 1.8974821136 2.0119052671 2.1243706857 2.232221744 
2.3334263672 2.426721652 2.5115728246 1.4671972081 1.3575464161 1.24411054 1.1296873865 1.0172219679 0.90937090954 
0.80816628637 0.71487100155 0.63001982895 2.6824132222 2.7864913217 2.8992382033 3.0186096618 3.1415926536 3.0186096618 
2.8992382033 2.7864913217 2.6824132222 0.45917943135 0.35510133185 0.2423544503 0.12298299178 0 0.12298299178 
0.2423544503 0.35510133185 0.45917943135 0.22715816343 0.49462574053 0.3129712797 0.77059342779 0.68021497688 0.49462574053 
1.0172219679 1.0172219679 1.0172219679 1.0172219679 1.2156949949 1.271087727 1.3676273807 1.5707963268 2.1243706857 
1.3676273807 1.447813335 1.5707963268 1.7739652728 2.1243706857 2.6469669131 1.4827341049 1.5707963268 1.6937793186 
1.8705049266 2.1243706857 2.4613776767 2.8286213739 1.5707963268 1.6588585487 1.7739652728 1.9258976586 2.1243706857 
2.3709992258 2.6469669131 2.9144344902 0.26576171152 0.33975332011 0.45685295248 0.40226393329 0.51573716537 0.6552068806 
0.45538277901 0.56421707518 0.69407236469 0.84594095064 0.50083690068 0.60464862014 0.72561863695 0.86392567495 1.0172219679 
0.54002084522 0.63877777351 0.75168694275 0.87851444325 1.0172219679 1.1636342747 0.57404952988 0.66790778838 0.77356233629 
0.89058134991 1.0172219679 1.1502619915 1.2852923014 0.60381225391 0.69302191562 0.79216440667 0.90072551443 1.0172219679 
1.139116835 1.2630228569 1.3852070904 0.71487100155 0.80816628637 0.80816628637 0.90937090954 0.90937090954 0.90937090954 
1.0172219679 1.0172219679 1.0172219679 1.0172219679 1.1296873865 1.1296873865 1.1296873865 1.1296873865 1.1296873865 
1.24411054 1.24411054 1.24411054 1.24411054 1.24411054 1.24411054 1.3575464161 1.3575464161 1.3575464161 
1.3575464161 1.3575464161 1.3575464161 1.3575464161 1.4671972081 1.4671972081 1.4671972081 1.4671972081 1.4671972081 
1.4671972081 1.4671972081 1.4671972081 1.6743954455 1.6743954455 1.7840462375 1.6743954455 1.7840462375 1.8974821136 
1.6743954455 1.7840462375 1.8974821136 2.0119052671 1.6743954455 1.7840462375 1.8974821136 2.0119052671 2.1243706857 
1.6743954455 1.7840462375 1.8974821136 2.0119052671 2.1243706857 2.232221744 1.6743954455 1.7840462375 1.8974821136 
2.0119052671 2.1243706857 2.232221744 2.3334263672 1.6743954455 1.7840462375 1.8974821136 2.0119052671 2.1243706857 
2.232221744 2.3334263672 2.426721652 1.7563855631 1.8785697967 1.8563003522 2.0024758186 1.9913306621 1.9779583789 
2.1243706857 2.1243706857 2.1243706857 2.1243706857 2.2408671392 2.2510113037 2.2630782103 2.2776669786 2.295651703 
2.3494282469 2.3680303173 2.3899057108 2.4159740166 2.4475202889 2.486385773 2.448570738 2.4736848652 2.5028148801 
2.5369440334 2.5773755784 2.6258554882 2.6847397011 2.5377803997 2.5675431237 2.6015718084 2.6407557529 2.6862098746 
2.7393287203 2.8018393335 2.8758309421 2.718901062 2.8307207459 2.7598010554 2.95115522 2.8800620952 2.8058000847 
3.0774230472 3.00855263 2.9351694502 2.8576792927 3.0774230472 3.1415926536 3.0719036933 2.9967168029 2.91630358 
2.95115522 3.00855263 3.0719036933 3.1415926536 3.0653475414 2.9825888767 2.8307207459 2.8800620952 2.9351694502 
2.9967168029 3.0653475414 3.1415926536 3.0574329311 2.718901062 2.7598010554 2.8058000847 2.8576792927 2.91630358 
2.9825888767 3.0574329311 3.1415926536 2.718901062 2.7598010554 2.8307207459 2.8058000847 2.8800620952 2.95115522 
2.8576792927 2.9351694502 3.00855263 3.0774230472 2.91630358 2.9967168029 3.0719036933 3.1415926536 3.0774230472 
2.9825888767 3.0653475414 3.1415926536 3.0719036933 3.00855263 2.95115522 3.0574329311 3.1415926536 3.0653475414 