# vtk DataFile Version 5.1
vtk output
ASCII
DATASET POLYDATA
POINTS 100 float
-3.63436 4.61851 0.875248 -3.64323 4.60932 0.867452 -3.67044 4.58032 0.848554 
-3.71553 4.53267 0.820819 -3.7777 4.46814 0.787598 -3.85581 4.38884 0.752809 
-3.94838 4.29693 0.720349 -4.05368 4.19432 0.69353 -4.1698 4.08247 0.674623 
-4.29488 3.96217 0.664589 -4.42727 3.83357 0.66303 -4.56571 3.69622 0.668349 
-4.70952 3.54922 0.678085 -4.85868 3.39145 0.689355 -5.01378 3.2218 0.699317 
-5.17596 3.03943 0.705573 -5.34664 2.84391 0.706454 -5.5273 2.63534 0.701146 
-5.71917 2.41438 0.689655 -5.92299 2.18219 0.672629 -6.13884 1.94031 0.651105 
-6.36612 1.69053 0.626217 -6.60365 1.4347 0.598949 -6.84983 1.17456 0.569965 
-7.10297 0.911605 0.539544 -7.36152 0.646971 0.507623 -7.62438 0.381368 0.473929 
-7.891 0.115057 0.438143 -8.16148 -0.152126 0.400076 -8.43645 -0.420704 0.359792 
-8.71686 -0.691443 0.317654 -9.00375 -0.965219 0.274297 -9.29801 -1.24285 0.230516 
-9.60014 -1.52494 0.187112 -9.91021 -1.81173 0.144722 -10.2279 -2.10297 0.103687 
-10.5526 -2.39794 0.0639626 -10.8838 -2.69546 0.025122 -11.2213 -2.99406 -0.0135824 
-11.5654 -3.29225 -0.0530952 -11.917 -3.58878 -0.0944141 -12.2778 -3.88308 -0.138458 
-12.6498 -4.17549 -0.185982 -13.0351 -4.46755 -0.237555 -13.4354 -4.7621 -0.293611 
-13.8515 -5.06319 -0.354556 -14.2829 -5.37581 -0.420903 -14.7275 -5.70543 -0.493398 
-15.1814 -6.05748 -0.573092 -15.6395 -6.43664 -0.661344 -16.0954 -6.84632 -0.759724 
-16.5423 -7.28816 -0.869834 -16.9736 -7.76183 -0.993055 -17.3834 -8.26498 -1.13029 
-17.7674 -8.79359 -1.2817 -18.1227 -9.34246 -1.44657 -18.4483 -9.90592 -1.6232 
-18.7451 -10.4786 -1.80904 -19.0148 -11.056 -2.00081 -19.2601 -11.6353 -2.19483 
-19.4841 -12.2153 -2.38741 -19.6893 -12.7967 -2.57513 -19.8778 -13.3816 -2.7552 
-20.0506 -13.9729 -2.92567 -20.2079 -14.574 -3.08553 -20.3492 -15.1875 -3.23461 
-20.4732 -15.8152 -3.37354 -20.5787 -16.457 -3.50342 -20.6646 -17.1114 -3.62557 
-20.73 -17.7751 -3.74132 -20.775 -18.4435 -3.85171 -20.7999 -19.111 -3.95743 
-20.806 -19.7724 -4.05877 -20.7948 -20.4223 -4.15563 -20.7684 -21.0567 -4.24771 
-20.729 -21.6726 -4.33463 -20.6789 -22.2681 -4.41608 -20.6206 -22.8426 -4.49198 
-20.5564 -23.3964 -4.56253 -20.4888 -23.9299 -4.62822 -20.4203 -24.4437 -4.68973 
-20.3534 -24.9379 -4.74787 -20.2905 -25.412 -4.80336 -20.2342 -25.8648 -4.85677 
-20.1865 -26.2944 -4.90835 -20.1493 -26.6988 -4.95798 -20.1236 -27.0756 -5.00522 
-20.11 -27.4228 -5.04933 -20.1081 -27.7389 -5.08942 -20.1169 -28.0228 -5.12461 
-20.1349 -28.2744 -5.15415 -20.1597 -28.4941 -5.17761 -20.1889 -28.6829 -5.19493 
-20.2201 -28.8423 -5.20648 -20.2507 -28.9736 -5.21301 -20.2787 -29.0785 -5.21558 
-20.3022 -29.1584 -5.21538 -20.3199 -29.2144 -5.21363 -20.3308 -29.2473 -5.21133 
-20.3344 -29.2577 -5.20917 
LINES 2 100
OFFSETS vtktypeint64
0 100 
CONNECTIVITY vtktypeint64
0 1 2 3 4 5 6 7 8 
9 10 11 12 13 14 15 16 17 
18 19 20 21 22 23 24 25 26 
27 28 29 30 31 32 33 34 35 
36 37 38 39 40 41 42 43 44 
45 46 47 48 49 50 51 52 53 
54 55 56 57 58 59 60 61 62 
63 64 65 66 67 68 69 70 71 
72 73 74 75 76 77 78 79 80 
81 82 83 84 85 86 87 88 89 
90 91 92 93 94 95 96 97 98 
99 
POINT_DATA 100
FIELD FieldData 3
_theta 1 100 double
0 0.031733259127 0.063466518254 0.095199777382 0.12693303651 0.15866629564 0.19039955476 0.22213281389 0.25386607302 
0.28559933214 0.31733259127 0.3490658504 0.38079910953 0.41253236865 0.44426562778 0.47599888691 0.50773214603 0.53946540516 
0.57119866429 0.60293192342 0.63466518254 0.66639844167 0.6981317008 0.72986495992 0.76159821905 0.79333147818 0.82506473731 
0.85679799643 0.88853125556 0.92026451469 0.95199777382 0.98373103294 1.0154642921 1.0471975512 1.0789308103 1.1106640695 
1.1423973286 1.1741305877 1.2058638468 1.237597106 1.2693303651 1.3010636242 1.3327968833 1.3645301425 1.3962634016 
1.4279966607 1.4597299198 1.491463179 1.5231964381 1.5549296972 1.5866629564 1.6183962155 1.6501294746 1.6818627337 
1.7135959929 1.745329252 1.7770625111 1.8087957702 1.8405290294 1.8722622885 1.9039955476 1.9357288068 1.9674620659 
1.999195325 2.0309285841 2.0626618433 2.0943951024 2.1261283615 2.1578616206 2.1895948798 2.2213281389 2.253061398 
2.2847946572 2.3165279163 2.3482611754 2.3799944345 2.4117276937 2.4434609528 2.4751942119 2.506927471 2.5386607302 
2.5703939893 2.6021272484 2.6338605076 2.6655937667 2.6973270258 2.7290602849 2.7607935441 2.7925268032 2.8242600623 
2.8559933214 2.8877265806 2.9194598397 2.9511930988 2.982926358 3.0146596171 3.0463928762 3.0781261353 3.1098593945 
3.1415926536 
_radius 1 100 double
4.4905742272e-15 0.27312457284 0.5454309251 0.81614599115 1.084636304 1.350404321 1.6130282633 1.8720636317 2.1269337777 
2.37683671 2.6206893852 2.8571233742 3.0845388155 3.3012156674 3.5054710727 3.6958408493 3.871255569 4.0311800288 
4.1756896031 4.3054673111 4.4217199105 4.5260270791 4.6201507771 4.7058383986 4.784651188 4.8578392355 4.9262699948 
4.9904045988 5.0503101958 5.105697595 5.1559774972 5.2003302774 5.237781621 5.2672718133 5.2877050402 5.2979704066 
5.2969384331 5.2834509696 5.2563313625 5.2144390866 5.1567786341 5.0826534773 4.9918424347 4.8847730758 4.762671659 
4.6276731748 4.4828723519 4.3322885963 4.1807128892 4.0334111431 3.8956811282 3.7723011909 3.6669663466 3.5818587849 
3.5174982443 3.4729257635 3.4461231481 3.4344737441 3.4351129096 3.4451398612 3.461746264 3.4823209091 3.5045527487 
3.5265211611 3.5467504314 3.5642133749 3.5782882301 3.5886920639 3.5954200158 3.598705045 3.5989850871 3.596846127 
3.5929196654 3.5877463972 3.5816453414 3.5746216443 3.5663116839 3.5559371106 3.542248723 3.5234767312 3.4973311455 
3.4610914811 3.4117947858 3.346497953 3.2625711036 3.1579757733 3.03148853 2.8828397259 2.7127436033 2.5228022566 
2.3152801818 2.092774007 1.8578390093 1.6126656648 1.3589065951 1.0977200185 0.83001814773 0.5568155756 0.27951621444 
5.0040618113e-14 
_area 1 100 double
0 0.21640677972 0.85922661028 1.9101443444 3.3415506072 5.1206636072 7.2144801462 9.5943150516 12.238332355 
15.130717709 18.257155221 21.597765701 25.11993206 28.773752884 32.49199904 36.194884366 39.798538061 43.225328835 
46.414095096 49.328520591 51.96210343 54.338407517 56.505805404 58.527051354 60.465727741 62.373069964 64.278712892 
66.187169963 68.079493737 69.918239014 71.654102914 73.233472356 74.606286056 75.732874661 76.587665171 77.157876787 
77.436925496 77.414655311 77.068648998 76.361382387 75.245844481 73.678211547 71.632981028 69.115645316 66.169760482 
62.877287116 59.352704049 55.733019364 52.167199578 48.80787281 45.80311405 43.276685819 41.283535418 39.777155722 
38.655338529 37.827321569 37.234029816 36.839250333 36.615745522 36.536113742 36.570858072 36.690223122 36.864649869 
37.062634231 37.249016248 37.386653753 37.441767148 37.391382748 37.230612146 36.977160296 36.670206247 36.361054685 
36.095355586 35.892722279 35.735935189 35.578838617 35.367385989 35.058538065 34.627032235 34.060237067 33.347327774 
32.470434265 31.402692349 30.112962669 28.573901966 26.770372197 24.705978996 22.406199041 19.917947666 17.306354034 
14.649221114 12.029508199 9.5271089771 7.2123579246 5.1436347707 3.369465431 1.9325378032 0.87169121677 0.21995174014 
1.5217273035e-13 
