# vtk DataFile Version 5.1
vtk output
ASCII
DATASET POLYDATA
POINTS 1002 float
-10.7124 0.194974 -2.40741 -24.6175 -13.9686 -5.13042 -9.88509 -2.80732 3.86368 
-23.7131 -14.7489 -0.24952 -13.7878 -6.95676 -2.84191 -13.9589 -7.88731 0.474468 
-21.5166 -2.83927 -0.453161 -21.762 -3.67067 3.24207 -21.3047 -26.8047 -5.06409 
-1.53865 -2.2186 -0.391592 -28.4025 -19.3648 -3.50028 -10.3255 5.02431 2.41307 
-11.744 -0.406745 -2.50629 -12.9724 -1.13063 -2.56933 -14.3839 -2.07284 -2.46044 
-16.0928 -3.30279 -2.24077 -18.2215 -4.84476 -2.29297 -20.4246 -6.67332 -2.80864 
-22.1366 -8.66341 -3.50384 -23.2687 -10.6239 -4.12199 -24.0527 -12.4072 -4.66069 
-10.4525 -0.297405 -2.62441 -10.2183 -0.936435 -2.79783 -10.0647 -1.63695 -3.02058 
-10.0706 -2.36082 -3.28415 -10.288 -3.22378 -3.4225 -10.6949 -4.23658 -3.39805 
-11.2372 -5.2034 -3.33114 -11.9153 -5.97592 -3.24397 -12.7712 -6.53866 -3.08009 
-11.591 0.223062 -2.16423 -12.5667 0.199776 -1.87547 -13.6659 0.139032 -1.62203 
-14.8595 -0.0420365 -1.37686 -16.0867 -0.406025 -1.09343 -17.323 -0.883147 -0.870269 
-18.5236 -1.40991 -0.747397 -19.6239 -1.95573 -0.634194 -20.617 -2.4444 -0.518776 
-9.56267 0.487397 -2.47413 -8.29525 0.697942 -2.51283 -6.90406 0.773653 -2.50168 
-5.43196 0.726285 -2.48469 -4.03553 0.552037 -2.48427 -2.9394 0.219943 -2.36207 
-2.22224 -0.255912 -1.98415 -1.78277 -0.857555 -1.43391 -1.55133 -1.54656 -0.878448 
-10.3215 0.828362 -2.17746 -9.97384 1.53585 -1.91436 -9.67707 2.27658 -1.60148 
-9.47597 2.94912 -1.1792 -9.39948 3.54537 -0.657627 -9.42721 4.11242 -0.136427 
-9.5601 4.59185 0.39466 -9.80376 4.89859 1.0301 -10.0898 5.02883 1.74094 
-24.0407 -13.8542 -5.0755 -23.4524 -13.6073 -4.93437 -22.88 -13.2335 -4.70612 
-22.2517 -12.675 -4.40288 -21.4954 -11.8104 -3.9841 -20.5195 -10.5639 -3.46121 
-19.1343 -9.09758 -3.00083 -17.3411 -7.83988 -2.76112 -15.4584 -7.13289 -2.74374 
-24.8459 -13.0283 -4.86136 -24.9539 -11.9265 -4.51412 -24.8886 -10.7247 -4.0575 
-24.6763 -9.45259 -3.51945 -24.3383 -8.09083 -2.97535 -23.8527 -6.74084 -2.42621 
-23.2476 -5.54709 -1.85596 -22.6178 -4.51117 -1.32211 -22.0357 -3.6027 -0.860824 
-24.7022 -15.4859 -5.52703 -24.7092 -17.2043 -5.87061 -24.6243 -19.0836 -6.14848 
-24.3482 -21.0139 -6.37073 -23.8537 -22.924 -6.50454 -23.2733 -24.6559 -6.50967 
-22.6724 -25.9272 -6.3716 -22.0533 -26.6404 -6.06701 -21.5496 -26.9028 -5.60715 
-25.2351 -14.8917 -5.37987 -25.824 -15.8078 -5.56159 -26.3964 -16.7704 -5.65897 
-26.9179 -17.7925 -5.64472 -27.3269 -18.7479 -5.5141 -27.6807 -19.4496 -5.31001 
-28.0465 -19.8002 -5.01059 -28.3326 -19.845 -4.56181 -28.4393 -19.6812 -4.02213 
-10.9872 -3.40896 3.85934 -12.2739 -4.06004 3.79008 -13.8457 -4.72198 3.60248 
-15.7231 -5.47703 3.2742 -17.7102 -6.53131 2.82577 -19.5252 -7.98169 2.24798 
-21.0253 -9.68774 1.55143 -22.1945 -11.4335 0.849532 -23.0675 -13.1207 0.24542 
-9.86191 -3.27304 3.54227 -9.86413 -3.87032 3.23698 -9.90475 -4.60144 2.9795 
-10.0618 -5.30119 2.65979 -10.4112 -5.88692 2.25153 -10.9336 -6.43895 1.85556 
-11.5709 -6.95335 1.4866 -12.3076 -7.34495 1.11669 -13.1216 -7.62686 0.774314 
-10.6706 -2.71794 4.11296 -11.7169 -2.60668 4.22987 -13.0321 -2.50638 4.27979 
-14.5349 -2.5215 4.36589 -16.1153 -2.67308 4.4292 -17.6475 -2.86396 4.38789 
-18.9884 -3.03553 4.25607 -20.0731 -3.20878 4.00572 -20.9664 -3.41637 3.63367 
-8.81059 -2.5343 3.63084 -7.71736 -2.3161 3.34297 -6.63378 -2.16016 3.03102 
-5.56163 -2.04658 2.66016 -4.52387 -1.95314 2.20817 -3.61123 -1.90717 1.75558 
-2.84079 -1.9454 1.32614 -2.17885 -2.0397 0.830838 -1.71111 -2.13904 0.236453 
-9.24656 -2.11278 4.00901 -8.60245 -1.20399 4.0725 -8.09215 -0.0729489 4.05032 
-7.84795 1.13979 3.97308 -7.85582 2.31298 3.85634 -8.03732 3.39852 3.7459 
-8.42862 4.27111 3.63468 -9.04771 4.80806 3.38379 -9.73871 5.02749 2.93668 
-23.1992 -14.4296 -0.230692 -22.5798 -13.9832 -0.161992 -21.8404 -13.4051 -0.0307446 
-21.0401 -12.6151 0.113933 -20.1992 -11.5811 0.251538 -19.2089 -10.4633 0.416843 
-18.001 -9.4698 0.58817 -16.6497 -8.69479 0.683727 -15.2712 -8.16729 0.6447 
-23.8375 -13.9296 0.0222317 -23.9373 -12.9579 0.327961 -23.9776 -11.8809 0.706577 
-23.9082 -10.7147 1.11303 -23.722 -9.44805 1.48856 -23.4601 -8.18099 1.8999 
-23.1311 -7.00251 2.35978 -22.7158 -5.85173 2.74882 -22.2392 -4.71143 3.02651 
-23.9454 -16.3123 -0.710764 -24.0912 -18.1238 -1.15557 -24.0674 -20.1108 -1.4747 
-23.8024 -22.0533 -1.76234 -23.3804 -23.7375 -2.26049 -22.9314 -25.1147 -2.87711 
-22.4153 -26.1784 -3.38759 -21.8329 -26.8391 -3.89741 -21.4036 -27.0273 -4.50703 
-24.3573 -15.9273 -0.53416 -25.0021 -17.0956 -0.83727 -25.6022 -18.1414 -1.16625 
-26.138 -19.0326 -1.49694 -26.6563 -19.7198 -1.81465 -27.1523 -20.1168 -2.13659 
-27.5516 -20.2199 -2.46829 -27.8627 -20.0761 -2.80264 -28.147 -19.7581 -3.14705 
-13.5275 -7.19928 -2.70743 -13.2943 -7.44379 -2.4911 -13.0964 -7.69954 -2.23294 
-12.9681 -7.94782 -1.92543 -12.9241 -8.14361 -1.53038 -12.9836 -8.2413 -1.09618 
-13.1614 -8.21344 -0.681709 -13.4148 -8.09584 -0.270855 -13.6892 -7.97187 0.129032 
-15.9948 -7.63222 -2.58251 -18.2289 -9.27455 -2.65642 -19.8797 -11.9488 -3.163 
-20.8719 -14.9756 -3.82622 -21.5757 -17.777 -4.33401 -22.0368 -20.3502 -4.66578 
-22.0846 -22.6195 -4.91805 -21.8029 -24.4014 -5.1089 -21.4578 -25.7642 -5.17726 
-11.6793 -6.90773 -3.14013 -9.83409 -6.84407 -3.3075 -8.19324 -6.45141 -3.21859 
-6.65893 -5.93294 -2.98604 -5.34833 -5.45101 -2.67736 -4.25742 -4.87095 -2.25575 
-3.22428 -4.23006 -1.81153 -2.32346 -3.61687 -1.40165 -1.74973 -2.95131 -0.933334 
-15.663 -8.47486 0.267582 -17.3891 -9.69352 -0.131548 -18.9003 -11.7312 -0.797665 
-20.1622 -14.408 -1.64443 -21.1511 -17.2566 -2.42149 -21.6552 -19.9049 -2.99126 
-21.6624 -22.2511 -3.49101 -21.4655 -24.2492 -4.04478 -21.3063 -25.7801 -4.59295 
-12.1384 -7.68084 0.392574 -10.3094 -7.6272 0.320579 -8.52019 -7.5382 0.353036 
-6.81553 -7.29602 0.415022 -5.37233 -6.84033 0.364927 -4.22768 -6.13963 0.212113 
-3.21456 -5.26702 0.0446382 -2.35045 -4.31818 -0.114627 -1.78995 -3.29741 -0.264808 
-21.7443 -2.63072 -0.174885 -21.9721 -2.4297 0.154149 -22.1851 -2.23904 0.564346 
-22.346 -2.04918 1.07303 -22.4004 -1.9478 1.64917 -22.3564 -2.07927 2.20339 
-22.2608 -2.42123 2.64482 -22.1231 -2.82865 2.94102 -21.9487 -3.24363 3.12172 
-22.7097 -3.72655 -0.709702 -23.9399 -4.90661 -1.06171 -25.1686 -6.31447 -1.44525 
-26.323 -7.72959 -1.82172 -27.2684 -9.41428 -2.28278 -28.0059 -11.8879 -2.86348 
-28.5765 -14.7058 -3.35639 -28.8254 -16.8886 -3.57356 -28.6959 -18.2847 -3.57212 
-20.4473 -1.91035 -0.0888535 -19.3169 -0.865718 0.265276 -18.1997 0.320268 0.593105 
-17.0897 1.44937 0.904489 -15.9009 2.3405 1.23151 -14.6306 3.0684 1.55036 
-13.4107 3.73727 1.80281 -12.3319 4.31529 2.00111 -11.3334 4.75029 2.20179 
-22.876 -4.64462 2.7578 -24.0269 -5.8071 2.22731 -25.068 -7.16066 1.49402 
-26.0083 -8.80994 0.577754 -26.9526 -10.8158 -0.241649 -27.837 -12.9858 -0.911714 
-28.4192 -15.0379 -1.63678 -28.5915 -16.806 -2.39223 -28.5177 -18.2307 -3.01522 
-20.8113 -2.52822 3.69077 -19.8378 -1.365 4.1264 -18.7464 -0.152862 4.37818 
-17.4121 1.07613 4.39029 -15.9534 2.2293 4.30706 -14.5735 3.22315 4.15405 
-13.2958 3.97497 3.82028 -12.1464 4.47224 3.3617 -11.1765 4.80066 2.89305 
-21.5762 -27.7333 -5.15252 -22.4474 -28.2925 -5.12386 -23.8686 -28.2338 -5.03079 
-25.1858 -27.5159 -4.96647 -25.9716 -26.4395 -4.89637 -26.6585 -25.2969 -4.7004 
-27.4465 -24.0062 -4.38213 -27.9613 -22.4311 -4.04028 -28.1879 -20.7861 -3.74367 
-1.52077 -1.02064 -0.103269 -1.71768 0.200474 0.161033 -2.24056 1.2866 0.348146 
-3.12662 2.28374 0.546153 -4.11776 3.28056 0.817083 -5.07537 4.17734 1.10336 
-6.23106 4.82592 1.42774 -7.64895 5.15823 1.81985 -9.07957 5.19105 2.1756 
-11.611 -0.984473 -2.71968 -11.5142 -1.69951 -2.88292 -12.9807 -1.80881 -2.73982 
-11.5218 -2.43752 -3.0844 -13.039 -2.55308 -2.86724 -14.5817 -2.81275 -2.56448 
-11.7456 -3.2097 -3.27739 -13.2516 -3.28469 -3.00621 -14.9129 -3.56199 -2.67467 
-16.6244 -4.12985 -2.38576 -12.2106 -4.09896 -3.31972 -13.7573 -4.09491 -3.08487 
-15.4858 -4.39268 -2.78712 -17.3649 -5.07241 -2.6017 -19.0511 -5.92236 -2.61795 
-12.8282 -4.99858 -3.21433 -14.5464 -5.00575 -3.02366 -16.352 -5.42263 -2.83529 
-18.2564 -6.26412 -2.82036 -19.9384 -7.24718 -2.99375 -21.1762 -8.06973 -3.25334 
-13.5623 -5.78445 -3.0551 -15.4755 -5.92511 -2.87927 -17.3872 -6.58941 -2.82814 
-19.1678 -7.6656 -3.00983 -20.6833 -8.77449 -3.35293 -21.7664 -9.62825 -3.68667 
-22.5538 -10.215 -3.94437 -14.4502 -6.47864 -2.89285 -16.4309 -6.86481 -2.77326 
-18.3669 -7.82615 -2.86233 -19.9594 -9.12735 -3.21194 -21.1916 -10.3334 -3.68394 
-22.1054 -11.1937 -4.08304 -22.7859 -11.7554 -4.36113 -23.415 -12.1468 -4.54901 
-9.18346 -0.096675 -2.67099 -7.82844 0.00430287 -2.73436 -8.85759 -0.796395 -2.89158 
-6.38691 -0.025017 -2.76125 -7.46732 -0.776433 -3.01952 -8.64501 -1.52161 -3.19063 
-4.90597 -0.19166 -2.72217 -6.07114 -0.946957 -3.01939 -7.23815 -1.60975 -3.3019 
-8.59663 -2.33558 -3.41813 -3.61026 -0.522466 -2.62741 -4.74786 -1.30525 -2.85368 
-5.96097 -2.00148 -3.19615 -7.1718 -2.60545 -3.42251 -8.79183 -3.38035 -3.44378 
-2.72727 -1.01029 -2.40188 -3.69781 -1.78399 -2.62295 -4.91359 -2.56126 -2.9407 
-6.0429 -3.18626 -3.29635 -7.44469 -3.78881 -3.42083 -9.28245 -4.55793 -3.41065 
-2.20315 -1.61455 -1.98112 -3.00984 -2.33847 -2.30675 -4.13204 -3.10533 -2.62322 
-5.24532 -3.82241 -3.05359 -6.48482 -4.37422 -3.34478 -8.1331 -4.99599 -3.42974 
-9.97648 -5.62607 -3.41649 -1.88153 -2.29224 -1.45304 -2.57418 -2.96887 -1.8753 
-3.58309 -3.64412 -2.23269 -4.6667 -4.35906 -2.67515 -5.82424 -4.94341 -3.07697 
-7.2991 -5.47209 -3.30942 -8.99187 -6.06083 -3.42067 -10.7689 -6.42295 -3.35288 
-2.15179 -4.04711 -0.78757 -2.88488 -5.10285 -0.644438 -2.90494 -4.72943 -1.28391 
-3.82301 -6.10535 -0.487391 -3.71996 -5.85226 -1.21747 -3.90319 -5.38282 -1.79689 
-4.86601 -6.95157 -0.265155 -4.65169 -6.87734 -1.07844 -4.74643 -6.52206 -1.80433 
-5.0022 -5.9836 -2.28285 -6.19464 -7.51502 -0.0631252 -5.79596 -7.63846 -0.792236 
[...]
POINT_DATA 1002
FIELD FieldData 4
_paraPhi 1 1002 double
6.2831853072 3.1415926536 6.2831853072 3.1415926536 4.7123889804 4.7123889804 1.5707963268 1.5707963268 3.6951670125 
5.7296109483 2.5880182947 0.5535743589 6.2831853072 6.2831853072 6.2831853072 6.2831853072 3.1415926536 3.1415926536 
3.1415926536 3.1415926536 3.1415926536 6.1053039672 5.898798347 5.6768734901 5.4599499503 5.2659633393 5.1032165617 
4.9713148346 4.8656852733 4.7809517865 0.17788134 0.38438696014 0.60631181711 0.82323535693 1.0172219679 1.1799687454 
1.3118704726 1.4175000338 1.5022335207 6.1892828907 6.1070320098 6.035312792 5.9728339911 5.9183214791 5.8706119594 
5.8286879411 5.7916808611 5.7588591896 0.093902416448 0.17615329733 0.2478725152 0.31035131605 0.36486382811 0.41257334776 
0.45449736604 0.4915044461 0.52432611754 3.3194739936 3.5259796137 3.7479044707 3.9648280105 4.1588146215 4.321561399 
4.4534631262 4.5590926874 4.6438261743 2.9637113136 2.7572056934 2.5352808365 2.3183572967 2.1243706857 1.9616239082 
1.829722181 1.7240926197 1.6393591329 3.23549507 3.3177459509 3.3894651688 3.4519439696 3.5064564817 3.5541660013 
3.5960900196 3.6330970997 3.6659187711 3.0476902371 2.9654393563 2.8937201384 2.8312413375 2.7767288255 2.7290193058 
2.6870952876 2.6500882075 2.617266536 6.2831853072 6.2831853072 6.2831853072 6.2831853072 3.1415926536 3.1415926536 
3.1415926536 3.1415926536 3.1415926536 6.1053039672 5.898798347 5.6768734901 5.4599499503 5.2659633393 5.1032165617 
4.9713148346 4.8656852733 4.7809517865 0.17788134 0.38438696014 0.60631181711 0.82323535693 1.0172219679 1.1799687454 
1.3118704726 1.4175000338 1.5022335207 6.1892828907 6.1070320098 6.035312792 5.9728339911 5.9183214791 5.8706119594 
5.8286879411 5.7916808611 5.7588591896 0.093902416448 0.17615329733 0.2478725152 0.31035131605 0.36486382811 0.41257334776 
0.45449736604 0.4915044461 0.52432611754 3.3194739936 3.5259796137 3.7479044707 3.9648280105 4.1588146215 4.321561399 
4.4534631262 4.5590926874 4.6438261743 2.9637113136 2.7572056934 2.5352808365 2.3183572967 2.1243706857 1.9616239082 
1.829722181 1.7240926197 1.6393591329 3.23549507 3.3177459509 3.3894651688 3.4519439696 3.5064564817 3.5541660013 
3.5960900196 3.6330970997 3.6659187711 3.0476902371 2.9654393563 2.8937201384 2.8312413375 2.7767288255 2.7290193058 
2.6870952876 2.6500882075 2.617266536 4.7123889804 4.7123889804 4.7123889804 4.7123889804 4.7123889804 4.7123889804 
4.7123889804 4.7123889804 4.7123889804 4.6087898617 4.4991390697 4.3857031936 4.2712800401 4.1588146215 4.0509635631 
3.94975894 3.8564636551 3.7716124825 4.8159880991 4.9256388911 5.0390747672 5.1534979207 5.2659633393 5.3738143976 
5.4750190208 5.5683143056 5.6531654782 4.6087898617 4.4991390697 4.3857031936 4.2712800401 4.1588146215 4.0509635631 
3.94975894 3.8564636551 3.7716124825 4.8159880991 4.9256388911 5.0390747672 5.1534979207 5.2659633393 5.3738143976 
5.4750190208 5.5683143056 5.6531654782 1.5707963268 1.5707963268 1.5707963268 1.5707963268 1.5707963268 1.5707963268 
1.5707963268 1.5707963268 1.5707963268 1.6743954455 1.7840462375 1.8974821136 2.0119052671 2.1243706857 2.232221744 
2.3334263672 2.426721652 2.5115728246 1.4671972081 1.3575464161 1.24411054 1.1296873865 1.0172219679 0.90937090954 
0.80816628637 0.71487100155 0.63001982895 1.6743954455 1.7840462375 1.8974821136 2.0119052671 2.1243706857 2.232221744 
2.3334263672 2.426721652 2.5115728246 1.4671972081 1.3575464161 1.24411054 1.1296873865 1.0172219679 0.90937090954 
0.80816628637 0.71487100155 0.63001982895 3.6007720849 3.4966939854 3.3839471039 3.2645756454 3.1415926536 3.0186096618 
2.8992382033 2.7864913217 2.6824132222 5.8240058758 5.9280839753 6.0408308569 6.1602023154 6.2831853072 0.12298299178 
0.2423544503 0.35510133185 0.45917943135 6.0560271438 5.7885595667 5.9702140275 5.5125918794 5.6029703303 5.7885595667 
5.2659633393 5.2659633393 5.2659633393 5.2659633393 5.0674903122 5.0120975802 4.9155579264 4.7123889804 4.1588146215 
4.9155579264 4.8353719722 4.7123889804 4.5092200343 4.1588146215 3.6362183941 4.8004512023 4.7123889804 4.5894059886 
4.4126803806 4.1588146215 3.8218076305 3.4545639333 4.7123889804 4.6243267584 4.5092200343 4.3572876485 4.1588146215 
3.9121860814 3.6362183941 3.368750817 6.0174235957 5.9434319871 5.8263323547 5.8809213739 5.7674481418 5.6279784266 
5.8278025282 5.718968232 5.5891129425 5.4372443565 5.7823484065 5.678536687 5.5575666702 5.4192596322 5.2659633393 
5.743164462 5.6444075337 5.5314983644 5.4046708639 5.2659633393 5.1195510325 5.7091357773 5.6152775188 5.5096229709 
5.3926039573 5.2659633393 5.1329233157 4.9978930058 5.6793730533 5.5901633916 5.4910209005 5.3824597928 5.2659633393 
5.1440684722 5.0201624502 4.8979782167 5.5683143056 5.4750190208 5.4750190208 5.3738143976 5.3738143976 5.3738143976 
5.2659633393 5.2659633393 5.2659633393 5.2659633393 5.1534979207 5.1534979207 5.1534979207 5.1534979207 5.1534979207 
5.0390747672 5.0390747672 5.0390747672 5.0390747672 5.0390747672 5.0390747672 4.9256388911 4.9256388911 4.9256388911 
4.9256388911 4.9256388911 4.9256388911 4.9256388911 4.8159880991 4.8159880991 4.8159880991 4.8159880991 4.8159880991 
4.8159880991 4.8159880991 4.8159880991 4.6087898617 4.6087898617 4.4991390697 4.6087898617 4.4991390697 4.3857031936 
4.6087898617 4.4991390697 4.3857031936 4.2712800401 4.6087898617 4.4991390697 4.3857031936 4.2712800401 4.1588146215 
4.6087898617 4.4991390697 4.3857031936 4.2712800401 4.1588146215 4.0509635631 4.6087898617 4.4991390697 4.3857031936 
4.2712800401 4.1588146215 4.0509635631 3.94975894 4.6087898617 4.4991390697 4.3857031936 4.2712800401 4.1588146215 
4.0509635631 3.94975894 3.8564636551 4.526799744 4.4046155105 4.426884955 4.2807094886 4.2918546451 4.3052269283 
4.1588146215 4.1588146215 4.1588146215 4.1588146215 4.042318168 4.0321740035 4.0201070968 4.0055183285 3.9875336042 
3.9337570603 3.9151549899 3.8932795963 3.8672112905 3.8356650183 3.7967995342 3.8346145692 3.809500442 3.7803704271 
3.7462412737 3.7058097288 3.657329819 3.5984456061 3.7454049075 3.7156421835 3.6816134988 3.6424295543 3.5969754326 
3.5438565869 3.4813459737 3.4073543651 3.5642842451 3.4524645613 3.5233842518 3.3320300872 3.403123212 3.4773852225 
3.20576226 3.2746326772 3.348015857 3.4255060145 3.0774230472 3.1415926536 3.2112816139 3.2864685043 3.3668817272 
2.95115522 3.00855263 3.0719036933 3.1415926536 3.2178377658 3.3005964304 2.8307207459 2.8800620952 2.9351694502 
2.9967168029 3.0653475414 3.1415926536 3.225752376 2.718901062 2.7598010554 2.8058000847 2.8576792927 2.91630358 
2.9825888767 3.0574329311 3.1415926536 3.5642842451 3.5233842518 3.4524645613 3.4773852225 3.403123212 3.3320300872 
3.4255060145 3.348015857 3.2746326772 3.20576226 3.3668817272 3.2864685043 3.2112816139 3.1415926536 3.0774230472 
3.3005964304 3.2178377658 3.1415926536 3.0719036933 3.00855263 2.95115522 3.225752376 3.1415926536 3.0653475414 
2.9967168029 2.9351694502 2.8800620952 2.8307207459 3.1415926536 3.0574329311 2.9825888767 2.91630358 2.8576792927 
2.8058000847 2.7598010554 2.718901062 4.526799744 4.426884955 4.4046155105 4.3052269283 4.2918546451 4.2807094886 
4.1588146215 4.1588146215 4.1588146215 4.1588146215 3.9875336042 4.0055183285 4.0201070968 4.0321740035 4.042318168 
3.7967995342 3.8356650183 3.8672112905 3.8932795963 3.9151549899 3.9337570603 3.5984456061 3.657329819 3.7058097288 
3.7462412737 3.7803704271 3.809500442 3.8346145692 3.4073543651 3.4813459737 3.5438565869 3.5969754326 3.6424295543 
3.6816134988 3.7156421835 3.7454049075 4.7123889804 4.8004512023 4.6243267584 4.9155579264 4.7123889804 4.5092200343 
5.0674903122 4.8353719722 4.5894059886 4.3572876485 5.2659633393 5.0120975802 4.7123889804 4.4126803806 4.1588146215 
5.5125918794 5.2659633393 4.9155579264 4.5092200343 4.1588146215 3.9121860814 5.7885595667 5.6029703303 5.2659633393 
4.7123889804 4.1588146215 3.8218076305 3.6362183941 6.0560271438 5.9702140275 5.7885595667 5.2659633393 4.1588146215 
3.6362183941 3.4545639333 3.368750817 0.22715816343 0.49462574053 0.3129712797 0.77059342779 0.68021497688 0.49462574053 
1.0172219679 1.0172219679 1.0172219679 1.0172219679 1.2156949949 1.271087727 1.3676273807 1.5707963268 2.1243706857 
1.3676273807 1.447813335 1.5707963268 1.7739652728 2.1243706857 2.6469669131 1.4827341049 1.5707963268 1.6937793186 
1.8705049266 2.1243706857 2.4613776767 2.8286213739 1.5707963268 1.6588585487 1.7739652728 1.9258976586 2.1243706857 
2.3709992258 2.6469669131 2.9144344902 1.7563855631 1.8785697967 1.8563003522 2.0024758186 1.9913306621 1.9779583789 
2.1243706857 2.1243706857 2.1243706857 2.1243706857 2.2408671392 2.2510113037 2.2630782103 2.2776669786 2.295651703 
2.3494282469 2.3680303173 2.3899057108 2.4159740166 2.4475202889 2.486385773 2.448570738 2.4736848652 2.5028148801 
2.5369440334 2.5773755784 2.6258554882 2.6847397011 2.5377803997 2.5675431237 2.6015718084 2.6407557529 2.6862098746 
2.7393287203 2.8018393335 2.8758309421 1.6743954455 1.6743954455 1.7840462375 1.6743954455 1.7840462375 1.8974821136 
1.6743954455 1.7840462375 1.8974821136 2.0119052671 1.6743954455 1.7840462375 1.8974821136 2.0119052671 2.1243706857 
1.6743954455 1.7840462375 1.8974821136 2.0119052671 2.1243706857 2.232221744 1.6743954455 1.7840462375 1.8974821136 
2.0119052671 2.1243706857 2.232221744 2.3334263672 1.6743954455 1.7840462375 1.8974821136 2.0119052671 2.1243706857 
2.232221744 2.3334263672 2.426721652 1.4671972081 1.3575464161 1.4671972081 1.24411054 1.3575464161 1.4671972081 
1.1296873865 1.24411054 1.3575464161 1.4671972081 1.0172219679 1.1296873865 1.24411054 1.3575464161 1.4671972081 
0.90937090954 1.0172219679 1.1296873865 1.24411054 1.3575464161 1.4671972081 0.80816628637 0.90937090954 1.0172219679 
1.1296873865 1.24411054 1.3575464161 1.4671972081 0.71487100155 0.80816628637 0.90937090954 1.0172219679 1.1296873865 
1.24411054 1.3575464161 1.4671972081 0.60381225391 0.57404952988 0.69302191562 0.54002084522 0.66790778838 0.79216440667 
0.50083690068 0.63877777351 0.77356233629 0.90072551443 0.45538277901 0.60464862014 0.75168694275 0.89058134991 1.0172219679 
0.40226393329 0.56421707518 0.72561863695 0.87851444325 1.0172219679 1.139116835 0.33975332011 0.51573716537 0.69407236469 
0.86392567495 1.0172219679 1.1502619915 1.2630228569 0.26576171152 0.45685295248 0.6552068806 0.84594095064 1.0172219679 
1.1636342747 1.2852923014 1.3852070904 0.22715816343 0.3129712797 0.49462574053 0.49462574053 0.68021497688 0.77059342779 
1.0172219679 1.0172219679 1.0172219679 1.0172219679 2.1243706857 1.5707963268 1.3676273807 1.271087727 1.2156949949 
2.6469669131 2.1243706857 1.7739652728 1.5707963268 1.447813335 1.3676273807 2.8286213739 2.4613776767 2.1243706857 
1.8705049266 1.6937793186 1.5707963268 1.4827341049 2.9144344902 2.6469669131 2.3709992258 2.1243706857 1.9258976586 
1.7739652728 1.6588585487 1.5707963268 1.7563855631 1.8563003522 1.8785697967 1.9779583789 1.9913306621 2.0024758186 
2.1243706857 2.1243706857 2.1243706857 2.1243706857 2.295651703 2.2776669786 2.2630782103 2.2510113037 2.2408671392 
2.486385773 2.4475202889 2.4159740166 2.3899057108 2.3680303173 2.3494282469 2.6847397011 2.6258554882 2.5773755784 
2.5369440334 2.5028148801 2.4736848652 2.448570738 2.8758309421 2.8018393335 2.7393287203 2.6862098746 2.6407557529 
2.6015718084 2.5675431237 2.5377803997 5.8604937156 5.901393709 5.9723133995 5.9473927383 6.0216547488 6.0927478736 
5.9992719463 6.0767621038 6.1501452836 6.2190157008 6.0578962336 6.1383094565 6.2134963469 0 0.064169606361 
6.1241815303 6.206940195 6.2831853072 0.069688960264 0.13304002361 0.19043743361 6.1990255847 0 0.07624511221 
0.14487585072 0.20642320337 0.26153055843 0.3108719077 0 0.084159722458 0.15900377685 0.22528907359 0.28391336087 
0.3357925689 0.38179159818 0.42269159155 5.8604937156 5.9723133995 5.901393709 6.0927478736 6.0216547488 5.9473927383 
6.2190157008 6.1501452836 6.0767621038 5.9992719463 0.064169606361 0 6.2134963469 6.1383094565 6.0578962336 
0.19043743361 0.13304002361 0.069688960264 6.2831853072 6.206940195 6.1241815303 0.3108719077 0.26153055843 0.20642320337 
0.14487585072 0.07624511221 6.2831853072 6.1990255847 0.42269159155 0.38179159818 0.3357925689 0.28391336087 0.22528907359 
0.15900377685 0.084159722458 0 5.6793730533 5.7091357773 5.5901633916 5.743164462 5.6152775188 5.4910209005 
5.7823484065 5.6444075337 5.5096229709 5.3824597928 5.8278025282 5.678536687 5.5314983644 5.3926039573 5.2659633393 
5.8809213739 5.718968232 5.5575666702 5.4046708639 5.2659633393 5.1440684722 5.9434319871 5.7674481418 5.5891129425 
5.4192596322 5.2659633393 5.1329233157 5.0201624502 6.0174235957 5.8263323547 5.6279784266 5.4372443565 5.2659633393 
5.1195510325 4.9978930058 4.8979782167 1.3852070904 1.2852923014 1.2630228569 1.1636342747 1.1502619915 1.139116835 
1.0172219679 1.0172219679 1.0172219679 1.0172219679 0.84594095064 0.86392567495 0.87851444325 0.89058134991 0.90072551443 
0.6552068806 0.69407236469 0.72561863695 0.75168694275 0.77356233629 0.79216440667 0.45685295248 0.51573716537 0.56421707518 
0.60464862014 0.63877777351 0.66790778838 0.69302191562 0.26576171152 0.33975332011 0.40226393329 0.45538277901 0.50083690068 
0.54002084522 0.57404952988 0.60381225391 
_paraPhiHalf 1 1002 double
0 3.1415926536 0 3.1415926536 1.5707963268 1.5707963268 1.5707963268 1.5707963268 2.5880182947 
0.5535743589 2.5880182947 0.5535743589 0 0 0 0 3.1415926536 3.1415926536 
3.1415926536 3.1415926536 3.1415926536 0.17788134 0.38438696014 0.60631181711 0.82323535693 1.0172219679 1.1799687454 
1.3118704726 1.4175000338 1.5022335207 0.17788134 0.38438696014 0.60631181711 0.82323535693 1.0172219679 1.1799687454 
1.3118704726 1.4175000338 1.5022335207 0.093902416448 0.17615329733 0.2478725152 0.31035131605 0.36486382811 0.41257334776 
0.45449736604 0.4915044461 0.52432611754 0.093902416448 0.17615329733 0.2478725152 0.31035131605 0.36486382811 0.41257334776 
0.45449736604 0.4915044461 0.52432611754 2.9637113136 2.7572056934 2.5352808365 2.3183572967 2.1243706857 1.9616239082 
1.829722181 1.7240926197 1.6393591329 2.9637113136 2.7572056934 2.5352808365 2.3183572967 2.1243706857 1.9616239082 
1.829722181 1.7240926197 1.6393591329 3.0476902371 2.9654393563 2.8937201384 2.8312413375 2.7767288255 2.7290193058 
2.6870952876 2.6500882075 2.617266536 3.0476902371 2.9654393563 2.8937201384 2.8312413375 2.7767288255 2.7290193058 
2.6870952876 2.6500882075 2.617266536 0 0 0 0 3.1415926536 3.1415926536 
3.1415926536 3.1415926536 3.1415926536 0.17788134 0.38438696014 0.60631181711 0.82323535693 1.0172219679 1.1799687454 
1.3118704726 1.4175000338 1.5022335207 0.17788134 0.38438696014 0.60631181711 0.82323535693 1.0172219679 1.1799687454 
1.3118704726 1.4175000338 1.5022335207 0.093902416448 0.17615329733 0.2478725152 0.31035131605 0.36486382811 0.41257334776 
0.45449736604 0.4915044461 0.52432611754 0.093902416448 0.17615329733 0.2478725152 0.31035131605 0.36486382811 0.41257334776 
0.45449736604 0.4915044461 0.52432611754 2.9637113136 2.7572056934 2.5352808365 2.3183572967 2.1243706857 1.9616239082 
1.829722181 1.7240926197 1.6393591329 2.9637113136 2.7572056934 2.5352808365 2.3183572967 2.1243706857 1.9616239082 
1.829722181 1.7240926197 1.6393591329 3.0476902371 2.9654393563 2.8937201384 2.8312413375 2.7767288255 2.7290193058 
2.6870952876 2.6500882075 2.617266536 3.0476902371 2.9654393563 2.8937201384 2.8312413375 2.7767288255 2.7290193058 
2.6870952876 2.6500882075 2.617266536 1.5707963268 1.5707963268 1.5707963268 1.5707963268 1.5707963268 1.5707963268 
1.5707963268 1.5707963268 1.5707963268 1.6743954455 1.7840462375 1.8974821136 2.0119052671 2.1243706857 2.232221744 
2.3334263672 2.426721652 2.5115728246 1.4671972081 1.3575464161 1.24411054 1.1296873865 1.0172219679 0.90937090954 
0.80816628637 0.71487100155 0.63001982895 1.6743954455 1.7840462375 1.8974821136 2.0119052671 2.1243706857 2.232221744 
2.3334263672 2.426721652 2.5115728246 1.4671972081 1.3575464161 1.24411054 1.1296873865 1.0172219679 0.90937090954 
0.80816628637 0.71487100155 0.63001982895 1.5707963268 1.5707963268 1.5707963268 1.5707963268 1.5707963268 1.5707963268 
1.5707963268 1.5707963268 1.5707963268 1.6743954455 1.7840462375 1.8974821136 2.0119052671 2.1243706857 2.232221744 
2.3334263672 2.426721652 2.5115728246 1.4671972081 1.3575464161 1.24411054 1.1296873865 1.0172219679 0.90937090954 
0.80816628637 0.71487100155 0.63001982895 1.6743954455 1.7840462375 1.8974821136 2.0119052671 2.1243706857 2.232221744 
2.3334263672 2.426721652 2.5115728246 1.4671972081 1.3575464161 1.24411054 1.1296873865 1.0172219679 0.90937090954 
0.80816628637 0.71487100155 0.63001982895 2.6824132222 2.7864913217 2.8992382033 3.0186096618 3.1415926536 3.0186096618 
2.8992382033 2.7864913217 2.6824132222 0.45917943135 0.35510133185 0.2423544503 0.12298299178 0 0.12298299178 
0.2423544503 0.35510133185 0.45917943135 0.22715816343 0.49462574053 0.3129712797 0.77059342779 0.68021497688 0.49462574053 
1.0172219679 1.0172219679 1.0172219679 1.0172219679 1.2156949949 1.271087727 1.3676273807 1.5707963268 2.1243706857 
1.3676273807 1.447813335 1.5707963268 1.7739652728 2.1243706857 2.6469669131 1.4827341049 1.5707963268 1.6937793186 
1.8705049266 2.1243706857 2.4613776767 2.8286213739 1.5707963268 1.6588585487 1.7739652728 1.9258976586 2.1243706857 
2.3709992258 2.6469669131 2.9144344902 0.26576171152 0.33975332011 0.45685295248 0.40226393329 0.51573716537 0.6552068806 
0.45538277901 0.56421707518 0.69407236469 0.84594095064 0.50083690068 0.60464862014 0.72561863695 0.86392567495 1.0172219679 
0.54002084522 0.63877777351 0.75168694275 0.87851444325 1.0172219679 1.1636342747 0.57404952988 0.66790778838 0.77356233629 
0.89058134991 1.0172219679 1.1502619915 1.2852923014 0.60381225391 0.69302191562 0.79216440667 0.90072551443 1.0172219679 
1.139116835 1.2630228569 1.3852070904 0.71487100155 0.80816628637 0.80816628637 0.90937090954 0.90937090954 0.90937090954 
1.0172219679 1.0172219679 1.0172219679 1.0172219679 1.1296873865 1.1296873865 1.1296873865 1.1296873865 1.1296873865 
1.24411054 1.24411054 1.24411054 1.24411054 1.24411054 1.24411054 1.3575464161 1.3575464161 1.3575464161 
1.3575464161 1.3575464161 1.3575464161 1.3575464161 1.4671972081 1.4671972081 1.4671972081 1.4671972081 1.4671972081 
1.4671972081 1.4671972081 1.4671972081 1.6743954455 1.6743954455 1.7840462375 1.6743954455 1.7840462375 1.8974821136 
1.6743954455 1.7840462375 1.8974821136 2.0119052671 1.6743954455 1.7840462375 1.8974821136 2.0119052671 2.1243706857 
1.6743954455 1.7840462375 1.8974821136 2.0119052671 2.1243706857 2.232221744 1.6743954455 1.7840462375 1.8974821136 
2.0119052671 2.1243706857 2.232221744 2.3334263672 1.6743954455 1.7840462375 1.8974821136 2.0119052671 2.1243706857 
2.232221744 2.3334263672 2.426721652 1.7563855631 1.8785697967 1.8563003522 2.0024758186 1.9913306621 1.9779583789 
2.1243706857 2.1243706857 2.1243706857 2.1243706857 2.2408671392 2.2510113037 2.2630782103 2.2776669786 2.295651703 
2.3494282469 2.3680303173 2.3899057108 2.4159740166 2.4475202889 2.486385773 2.448570738 2.4736848652 2.5028148801 
2.5369440334 2.5773755784 2.6258554882 2.6847397011 2.5377803997 2.5675431237 2.6015718084 2.6407557529 2.6862098746 
2.7393287203 2.8018393335 2.8758309421 2.718901062 2.8307207459 2.7598010554 2.95115522 2.8800620952 2.8058000847 
3.0774230472 3.00855263 2.9351694502 2.8576792927 3.0774230472 3.1415926536 3.0719036933 2.9967168029 2.91630358 
2.95115522 3.00855263 3.0719036933 3.1415926536 3.0653475414 2.9825888767 2.8307207459 2.8800620952 2.9351694502 
2.9967168029 3.0653475414 3.1415926536 3.0574329311 2.718901062 2.7598010554 2.8058000847 2.8576792927 2.91630358 
2.9825888767 3.0574329311 3.1415926536 2.718901062 2.7598010554 2.8307207459 2.8058000847 2.8800620952 2.95115522 
2.8576792927 2.9351694502 3.00855263 3.0774230472 2.91630358 2.9967168029 3.0719036933 3.1415926536 3.0774230472 
2.9825888767 3.0653475414 3.1415926536 3.0719036933 3.00855263 2.95115522 3.0574329311 3.1415926536 3.0653475414 