# vtk DataFile Version 5.1
vtk output
ASCII
DATASET POLYDATA
POINTS 1002 float
-9.93804 0.0781867 -3.29433 10.0661 -0.995157 -3.05904 -9.27868 0.893398 3.62849 
9.26086 -1.11402 1.89951 -2.57746 2.24615 -1.91022 -2.31402 1.82103 1.50204 
-0.928179 -6.67317 -1.56237 -0.75025 -7.31299 2.17463 17.3462 9.29004 1.05912 
-14.5019 7.89377 0.189022 16.2649 -0.966319 -0.28828 -14.53 -3.8307 -0.0781542 
-8.80169 -0.301937 -3.30969 -7.45192 -0.764361 -3.27376 -5.84879 -1.27568 -3.02766 
-3.8563 -1.8632 -2.62006 -1.31447 -2.50416 -2.41962 1.56215 -2.90541 -2.58372 
4.26472 -2.79376 -2.82555 6.55257 -2.28594 -2.94828 8.46859 -1.64601 -3.0144 
-9.71052 0.629391 -3.33289 -9.36503 1.23934 -3.28959 -8.91337 1.83925 -3.28288 
-8.33326 2.34455 -3.32317 -7.53209 2.74367 -3.22353 -6.52237 3.04972 -2.94299 
-5.46456 3.2153 -2.64814 -4.4642 3.15551 -2.40341 -3.51419 2.81471 -2.16355 
-9.42155 -0.660299 -3.15345 -8.81091 -1.45196 -2.96329 -8.08586 -2.30419 -2.80743 
-7.2089 -3.15156 -2.63318 -6.18115 -3.92265 -2.37232 -5.05431 -4.6159 -2.13667 
-3.89809 -5.22607 -1.97867 -2.79211 -5.74694 -1.81489 -1.79889 -6.22299 -1.65563 
-10.8971 0.778375 -3.3353 -11.8776 1.60932 -3.31468 -12.8479 2.60211 -3.19566 
-13.7814 3.72898 -3.0276 -14.5691 4.88081 -2.84539 -15.0631 5.87221 -2.52939 
-15.2437 6.60078 -1.96357 -15.1771 7.15315 -1.22308 -14.9106 7.6016 -0.471642 
-10.6986 -0.0749196 -3.22353 -11.4907 -0.314244 -3.14686 -12.282 -0.624872 -3.03726 
-12.9779 -0.994089 -2.81261 -13.5518 -1.43602 -2.48288 -14.0358 -1.93809 -2.15476 
-14.3877 -2.46811 -1.80153 -14.5565 -3.00305 -1.30898 -14.5796 -3.48181 -0.697153 
9.59446 -0.647274 -2.98606 9.00374 -0.393925 -2.86855 8.3158 -0.252485 -2.70664 
7.44297 -0.20125 -2.52194 6.24182 -0.27085 -2.30458 4.59816 -0.435779 -2.07892 
2.53411 -0.4119 -1.93849 0.391727 0.102206 -1.90899 -1.36747 1.07681 -1.92208 
9.47924 -1.80929 -3.09865 8.68171 -2.65203 -3.09965 7.67924 -3.4544 -3.00941 
6.51524 -4.21077 -2.84841 5.20171 -4.92918 -2.69601 3.79918 -5.53114 -2.52153 
2.43014 -5.95402 -2.27018 1.16707 -6.25266 -2.0051 0.0409363 -6.49045 -1.77641 
11.3044 -0.030719 -3.00192 12.6313 1.10057 -2.8284 14.006 2.38175 -2.53674 
15.284 3.82262 -2.15932 16.3895 5.3917 -1.68315 17.2865 6.883 -1.12839 
17.8073 8.07173 -0.569772 17.8779 8.89055 -0.0137213 17.6667 9.30788 0.547819 
11.1921 -0.830283 -3.08519 12.2832 -0.6657 -3.04616 13.3842 -0.482414 -2.91174 
14.4775 -0.253886 -2.64896 15.4292 -0.0120345 -2.28429 16.1458 0.0974423 -1.91851 
16.5959 -0.0408636 -1.56552 16.7443 -0.344804 -1.15211 16.6064 -0.66505 -0.696166 
-8.11135 0.435765 3.69649 -6.77606 -0.113005 3.69979 -5.22661 -0.837872 3.56688 
-3.38529 -1.69826 3.29855 -1.23205 -2.42712 2.99284 1.12121 -2.75203 2.69568 
3.4755 -2.65435 2.38959 5.64293 -2.28331 2.12104 7.55702 -1.75164 1.95625 
-8.89866 1.27827 3.46056 -8.40759 1.72009 3.34398 -7.80036 2.20226 3.30834 
-7.12987 2.59436 3.1934 -6.4029 2.79591 2.94286 -5.58936 2.84429 2.67797 
-4.73245 2.77654 2.41703 -3.90077 2.55986 2.11005 -3.10367 2.21122 1.79002 
-8.86945 0.185719 3.76603 -8.28395 -0.696075 3.74673 -7.50315 -1.75512 3.64163 
-6.52002 -2.89373 3.58705 -5.38163 -4.00145 3.54328 -4.22908 -5.02181 3.41593 
-3.20162 -5.88712 3.21473 -2.32194 -6.5286 2.92523 -1.52285 -6.97415 2.54784 
-10.1473 1.59236 3.42799 -10.979 2.3531 3.19286 -11.7545 3.15083 2.95206 
-12.4818 3.98115 2.66647 -13.1586 4.81913 2.3063 -13.7182 5.59248 1.94767 
-14.1262 6.30463 1.62231 -14.411 6.98685 1.24042 -14.5487 7.55251 0.747473 
-10.2331 0.910506 3.62413 -11.3359 0.822551 3.47988 -12.5011 0.521298 3.1767 
-13.5429 -0.0146817 2.77233 -14.3839 -0.705039 2.31825 -15.0474 -1.47366 1.87943 
-15.4161 -2.26942 1.48233 -15.3654 -2.99488 1.02881 -15.0018 -3.52959 0.474384 
8.68527 -0.928601 1.87251 7.93871 -0.754694 1.86578 7.00628 -0.587412 1.89144 
5.87541 -0.507127 1.87378 4.53922 -0.543318 1.78202 3.03873 -0.525951 1.70617 
1.48615 -0.27136 1.69276 0.0128299 0.243469 1.68439 -1.27415 0.964543 1.62267 
8.69457 -1.77728 1.90752 7.99431 -2.52366 1.90577 7.16562 -3.30883 1.94821 
6.19465 -4.07336 2.00143 5.07806 -4.80357 2.00689 3.90572 -5.48669 2.0534 
2.7468 -6.07819 2.17827 1.56313 -6.56976 2.25186 0.364923 -6.98001 2.22828 
10.6404 -0.215209 1.89471 12.1433 0.89537 1.98604 13.6442 2.20711 2.26411 
14.949 3.66411 2.58178 15.9942 5.13621 2.63846 16.8145 6.47231 2.49535 
17.3426 7.63993 2.36812 17.5298 8.61146 2.13015 17.4853 9.20645 1.64502 
10.5983 -0.804253 1.91189 11.9314 -0.496271 1.90366 13.1493 -0.22268 1.83929 
14.2112 0.00527252 1.73422 15.1092 0.118596 1.58362 15.7792 0.0729177 1.34644 
16.1706 -0.0768449 1.02332 16.3227 -0.310397 0.633926 16.3302 -0.627283 0.186665 
-2.59109 2.55383 -1.68704 -2.59867 2.82107 -1.38793 -2.58162 3.0579 -1.04901 
-2.5323 3.22512 -0.671845 -2.48052 3.27445 -0.234558 -2.43949 3.1763 0.201676 
-2.41024 2.91817 0.571402 -2.39698 2.54972 0.904425 -2.37289 2.16454 1.22318 
-0.673428 0.937385 -1.67326 2.01506 0.284263 -1.4741 5.15143 0.809562 -1.33107 
8.14094 2.08367 -1.17253 10.75 3.39592 -0.904733 13.0033 4.70496 -0.513197 
14.7485 6.11768 -0.0958603 15.9083 7.46421 0.268697 16.6977 8.57089 0.633518 
-3.94871 3.87295 -2.01063 -5.17919 5.25963 -2.01544 -6.55948 6.226 -1.89145 
-7.98581 6.99851 -1.67741 -9.25072 7.60592 -1.40124 -10.4621 7.95958 -1.06679 
-11.684 8.22702 -0.73398 -12.7932 8.42121 -0.43819 -13.7358 8.3233 -0.13273 
-0.729526 0.956811 1.31666 1.36577 0.510693 1.13031 3.96697 0.794147 0.948872 
6.90502 1.70087 0.80532 9.7793 2.89853 0.803805 12.1545 4.28313 0.986671 
13.9697 5.83761 1.19468 15.403 7.34689 1.26887 16.5158 8.54177 1.20857 
-3.64736 3.07992 1.53461 -4.87515 4.43566 1.62198 -6.11978 5.71289 1.79473 
-7.42666 6.82576 1.94298 -8.70133 7.64193 1.89774 -9.94424 8.11198 1.65524 
-11.2252 8.3826 1.3363 -12.466 8.49304 0.988972 -13.5621 8.3299 0.600824 
-0.977465 -7.04324 -1.37967 -1.02933 -7.42203 -1.14646 -1.09632 -7.80458 -0.831586 
-1.21281 -8.17328 -0.417838 -1.34477 -8.42593 0.0958991 -1.36612 -8.45722 0.665946 
-1.24788 -8.2923 1.19485 -1.08559 -8.01808 1.60857 -0.923198 -7.68168 1.91799 
0.55005 -6.95911 -1.65965 2.28395 -7.06963 -1.76588 4.1899 -7.032 -1.83555 
6.05133 -6.93616 -1.8894 7.988 -6.49744 -1.92553 10.3893 -5.39117 -1.82591 
12.9207 -3.97303 -1.52666 14.7284 -2.77277 -1.12001 15.6726 -1.82541 -0.699237 
-2.37334 -6.53331 -1.38625 -3.94223 -6.41558 -1.24785 -5.60249 -6.38697 -1.17695 
-7.21339 -6.32485 -1.10579 -8.70304 -6.0628 -0.942944 -10.1245 -5.63808 -0.732609 
-11.4587 -5.19785 -0.572992 -12.6246 -4.79384 -0.451652 -13.6327 -4.36345 -0.293866 
0.776806 -7.42765 1.89326 2.47445 -7.44292 1.61945 4.27372 -7.2068 1.21861 
6.25436 -6.66726 0.739316 8.48494 -5.93865 0.455883 10.7731 -5.10418 0.368069 
12.785 -4.10086 0.221867 14.3235 -2.95561 0.00237599 15.426 -1.86991 -0.168145 
-2.2886 -7.41411 2.35766 -3.8552 -7.5073 2.52434 -5.50548 -7.49422 2.51278 
-7.28888 -7.24705 2.29097 -9.08269 -6.83558 2.01219 -10.696 -6.368 1.70605 
-12.0347 -5.78229 1.28887 -13.0814 -5.10504 0.815102 -13.8842 -4.45676 0.364164 
18.2231 9.67559 1.22034 19.2024 9.35645 1.32903 20.0765 8.2321 1.2672 
20.4009 6.79145 0.995454 20.1115 5.52885 0.674517 19.688 4.26718 0.463321 
19.2021 2.80762 0.315872 18.3233 1.37324 0.133531 17.2113 0.12391 -0.0852282 
-15.4434 7.10207 0.115707 -16.2572 6.14167 -0.00737375 -16.7451 5.03952 -0.195128 
-16.931 3.71678 -0.380621 -17.0594 2.29654 -0.50646 -17.1386 0.958367 -0.585364 
-16.9109 -0.386829 -0.574177 -16.289 -1.75331 -0.43085 -15.432 -2.93736 -0.235971 
-8.42853 0.205244 -3.33182 -7.93855 0.756008 -3.26955 -6.91895 -0.312928 -3.239 
-7.35691 1.2525 -3.24677 -6.31139 0.130113 -3.14865 -5.15669 -0.945851 -2.92941 
-6.60961 1.60566 -3.22623 -5.61013 0.452953 -3.08746 -4.3693 -0.708566 -2.8468 
-2.87438 -1.71956 -2.56668 -5.64214 1.8104 -3.05073 -4.66828 0.588399 -2.97344 
-3.3628 -0.602172 -2.76528 -1.65883 -1.64348 -2.56674 0.0766497 -2.38409 -2.49244 
-4.59065 1.86857 -2.74592 -3.48892 0.536525 -2.72349 -2.02739 -0.610721 -2.59193 
-0.160071 -1.52797 -2.51088 1.69616 -2.14341 -2.54693 3.15654 -2.50156 -2.6702 
-3.55533 1.75621 -2.43396 -2.22485 0.363329 -2.40502 -0.48918 -0.676831 -2.34187 
1.50175 -1.30721 -2.36791 3.36884 -1.677 -2.51318 4.76272 -1.88099 -2.68342 
5.75348 -2.046 -2.83142 -2.48716 1.47197 -2.16031 -0.922374 0.192873 -2.1196 
1.0709 -0.648009 -2.10555 3.1314 -0.956655 -2.20815 4.9051 -1.02151 -2.4212 
6.20321 -1.07769 -2.63589 7.10865 -1.17259 -2.80058 7.8403 -1.35625 -2.92424 
-10.6835 1.46955 -3.31675 -11.6367 2.43928 -3.27943 -10.3458 2.19743 -3.29206 
-12.5564 3.54369 -3.16127 -11.252 3.25975 -3.28927 -9.90234 2.87645 -3.34524 
-13.4114 4.7441 -2.93656 -12.0422 4.40919 -3.10844 -10.7424 4.01271 -3.29349 
-9.29725 3.46794 -3.31982 -14.0328 5.89132 -2.62833 -12.6729 5.57533 -2.72208 
-11.3085 5.18031 -2.95876 -10.0323 4.70055 -3.11162 -8.39475 3.96506 -3.05779 
-14.2888 6.79108 -2.18853 -13.046 6.5933 -2.2643 -11.6241 6.23923 -2.45407 
-10.365 5.86701 -2.71623 -8.98106 5.21682 -2.79044 -7.21 4.30656 -2.72876 
-14.255 7.44217 -1.56258 -13.1395 7.36401 -1.73704 -11.7868 7.07334 -1.91986 
-10.4584 6.78869 -2.22477 -9.19141 6.27255 -2.45724 -7.63795 5.4392 -2.51135 
-5.96622 4.4392 -2.48784 -14.0515 7.95839 -0.832049 -13.0301 7.96199 -1.1016 
-11.8127 7.711 -1.33945 -10.5033 7.45042 -1.65372 -9.2483 7.04431 -1.97432 
-7.85346 6.32253 -2.17971 -6.29094 5.44257 -2.27265 -4.86909 4.31478 -2.26917 
-12.6877 8.65195 0.287957 -11.4514 8.70897 0.663406 -11.6104 8.63301 -0.0561165 
-10.1222 8.57638 1.01734 -10.2586 8.68954 0.25821 -10.3911 8.41722 -0.447458 
-8.84986 8.25303 1.3779 -8.914 8.58019 0.602184 -8.99672 8.48186 -0.201319 
-9.14874 8.08687 -0.837871 -7.59539 7.54874 1.60995 -7.64832 8.11248 0.989312 
-7.63614 8.27702 0.128317 -7.73264 8.01068 -0.610108 -7.90745 7.53083 -1.15403 
-6.27774 6.4476 1.56965 -6.35819 7.16275 1.19887 -6.324 7.6351 0.498354 
-6.31376 7.66167 -0.322164 -6.44485 7.31224 -0.936613 -6.55872 6.79195 -1.42452 
-4.99037 5.10141 1.3796 -5.06356 5.81931 1.12613 -5.0589 6.45346 0.685139 
[...]
POINT_DATA 1002
FIELD FieldData 4
_paraPhi 1 1002 double
6.2831853072 3.1415926536 6.2831853072 3.1415926536 4.7123889804 4.7123889804 1.5707963268 1.5707963268 3.6951670125 
5.7296109483 2.5880182947 0.5535743589 6.2831853072 6.2831853072 6.2831853072 6.2831853072 3.1415926536 3.1415926536 
3.1415926536 3.1415926536 3.1415926536 6.1053039672 5.898798347 5.6768734901 5.4599499503 5.2659633393 5.1032165617 
4.9713148346 4.8656852733 4.7809517865 0.17788134 0.38438696014 0.60631181711 0.82323535693 1.0172219679 1.1799687454 
1.3118704726 1.4175000338 1.5022335207 6.1892828907 6.1070320098 6.035312792 5.9728339911 5.9183214791 5.8706119594 
5.8286879411 5.7916808611 5.7588591896 0.093902416448 0.17615329733 0.2478725152 0.31035131605 0.36486382811 0.41257334776 
0.45449736604 0.4915044461 0.52432611754 3.3194739936 3.5259796137 3.7479044707 3.9648280105 4.1588146215 4.321561399 
4.4534631262 4.5590926874 4.6438261743 2.9637113136 2.7572056934 2.5352808365 2.3183572967 2.1243706857 1.9616239082 
1.829722181 1.7240926197 1.6393591329 3.23549507 3.3177459509 3.3894651688 3.4519439696 3.5064564817 3.5541660013 
3.5960900196 3.6330970997 3.6659187711 3.0476902371 2.9654393563 2.8937201384 2.8312413375 2.7767288255 2.7290193058 
2.6870952876 2.6500882075 2.617266536 6.2831853072 6.2831853072 6.2831853072 6.2831853072 3.1415926536 3.1415926536 
3.1415926536 3.1415926536 3.1415926536 6.1053039672 5.898798347 5.6768734901 5.4599499503 5.2659633393 5.1032165617 
4.9713148346 4.8656852733 4.7809517865 0.17788134 0.38438696014 0.60631181711 0.82323535693 1.0172219679 1.1799687454 
1.3118704726 1.4175000338 1.5022335207 6.1892828907 6.1070320098 6.035312792 5.9728339911 5.9183214791 5.8706119594 
5.8286879411 5.7916808611 5.7588591896 0.093902416448 0.17615329733 0.2478725152 0.31035131605 0.36486382811 0.41257334776 
0.45449736604 0.4915044461 0.52432611754 3.3194739936 3.5259796137 3.7479044707 3.9648280105 4.1588146215 4.321561399 
4.4534631262 4.5590926874 4.6438261743 2.9637113136 2.7572056934 2.5352808365 2.3183572967 2.1243706857 1.9616239082 
1.829722181 1.7240926197 1.6393591329 3.23549507 3.3177459509 3.3894651688 3.4519439696 3.5064564817 3.5541660013 
3.5960900196 3.6330970997 3.6659187711 3.0476902371 2.9654393563 2.8937201384 2.8312413375 2.7767288255 2.7290193058 
2.6870952876 2.6500882075 2.617266536 4.7123889804 4.7123889804 4.7123889804 4.7123889804 4.7123889804 4.7123889804 
4.7123889804 4.7123889804 4.7123889804 4.6087898617 4.4991390697 4.3857031936 4.2712800401 4.1588146215 4.0509635631 
3.94975894 3.8564636551 3.7716124825 4.8159880991 4.9256388911 5.0390747672 5.1534979207 5.2659633393 5.3738143976 
5.4750190208 5.5683143056 5.6531654782 4.6087898617 4.4991390697 4.3857031936 4.2712800401 4.1588146215 4.0509635631 
3.94975894 3.8564636551 3.7716124825 4.8159880991 4.9256388911 5.0390747672 5.1534979207 5.2659633393 5.3738143976 
5.4750190208 5.5683143056 5.6531654782 1.5707963268 1.5707963268 1.5707963268 1.5707963268 1.5707963268 1.5707963268 
1.5707963268 1.5707963268 1.5707963268 1.6743954455 1.7840462375 1.8974821136 2.0119052671 2.1243706857 2.232221744 
2.3334263672 2.426721652 2.5115728246 1.4671972081 1.3575464161 1.24411054 1.1296873865 1.0172219679 0.90937090954 
0.80816628637 0.71487100155 0.63001982895 1.6743954455 1.7840462375 1.8974821136 2.0119052671 2.1243706857 2.232221744 
2.3334263672 2.426721652 2.5115728246 1.4671972081 1.3575464161 1.24411054 1.1296873865 1.0172219679 0.90937090954 
0.80816628637 0.71487100155 0.63001982895 3.6007720849 3.4966939854 3.3839471039 3.2645756454 3.1415926536 3.0186096618 
2.8992382033 2.7864913217 2.6824132222 5.8240058758 5.9280839753 6.0408308569 6.1602023154 6.2831853072 0.12298299178 
0.2423544503 0.35510133185 0.45917943135 6.0560271438 5.7885595667 5.9702140275 5.5125918794 5.6029703303 5.7885595667 
5.2659633393 5.2659633393 5.2659633393 5.2659633393 5.0674903122 5.0120975802 4.9155579264 4.7123889804 4.1588146215 
4.9155579264 4.8353719722 4.7123889804 4.5092200343 4.1588146215 3.6362183941 4.8004512023 4.7123889804 4.5894059886 
4.4126803806 4.1588146215 3.8218076305 3.4545639333 4.7123889804 4.6243267584 4.5092200343 4.3572876485 4.1588146215 
3.9121860814 3.6362183941 3.368750817 6.0174235957 5.9434319871 5.8263323547 5.8809213739 5.7674481418 5.6279784266 
5.8278025282 5.718968232 5.5891129425 5.4372443565 5.7823484065 5.678536687 5.5575666702 5.4192596322 5.2659633393 
5.743164462 5.6444075337 5.5314983644 5.4046708639 5.2659633393 5.1195510325 5.7091357773 5.6152775188 5.5096229709 
5.3926039573 5.2659633393 5.1329233157 4.9978930058 5.6793730533 5.5901633916 5.4910209005 5.3824597928 5.2659633393 
5.1440684722 5.0201624502 4.8979782167 5.5683143056 5.4750190208 5.4750190208 5.3738143976 5.3738143976 5.3738143976 
5.2659633393 5.2659633393 5.2659633393 5.2659633393 5.1534979207 5.1534979207 5.1534979207 5.1534979207 5.1534979207 
5.0390747672 5.0390747672 5.0390747672 5.0390747672 5.0390747672 5.0390747672 4.9256388911 4.9256388911 4.9256388911 
4.9256388911 4.9256388911 4.9256388911 4.9256388911 4.8159880991 4.8159880991 4.8159880991 4.8159880991 4.8159880991 
4.8159880991 4.8159880991 4.8159880991 4.6087898617 4.6087898617 4.4991390697 4.6087898617 4.4991390697 4.3857031936 
4.6087898617 4.4991390697 4.3857031936 4.2712800401 4.6087898617 4.4991390697 4.3857031936 4.2712800401 4.1588146215 
4.6087898617 4.4991390697 4.3857031936 4.2712800401 4.1588146215 4.0509635631 4.6087898617 4.4991390697 4.3857031936 
4.2712800401 4.1588146215 4.0509635631 3.94975894 4.6087898617 4.4991390697 4.3857031936 4.2712800401 4.1588146215 
4.0509635631 3.94975894 3.8564636551 4.526799744 4.4046155105 4.426884955 4.2807094886 4.2918546451 4.3052269283 
4.1588146215 4.1588146215 4.1588146215 4.1588146215 4.042318168 4.0321740035 4.0201070968 4.0055183285 3.9875336042 
3.9337570603 3.9151549899 3.8932795963 3.8672112905 3.8356650183 3.7967995342 3.8346145692 3.809500442 3.7803704271 
3.7462412737 3.7058097288 3.657329819 3.5984456061 3.7454049075 3.7156421835 3.6816134988 3.6424295543 3.5969754326 
3.5438565869 3.4813459737 3.4073543651 3.5642842451 3.4524645613 3.5233842518 3.3320300872 3.403123212 3.4773852225 
3.20576226 3.2746326772 3.348015857 3.4255060145 3.0774230472 3.1415926536 3.2112816139 3.2864685043 3.3668817272 
2.95115522 3.00855263 3.0719036933 3.1415926536 3.2178377658 3.3005964304 2.8307207459 2.8800620952 2.9351694502 
2.9967168029 3.0653475414 3.1415926536 3.225752376 2.718901062 2.7598010554 2.8058000847 2.8576792927 2.91630358 
2.9825888767 3.0574329311 3.1415926536 3.5642842451 3.5233842518 3.4524645613 3.4773852225 3.403123212 3.3320300872 
3.4255060145 3.348015857 3.2746326772 3.20576226 3.3668817272 3.2864685043 3.2112816139 3.1415926536 3.0774230472 
3.3005964304 3.2178377658 3.1415926536 3.0719036933 3.00855263 2.95115522 3.225752376 3.1415926536 3.0653475414 
2.9967168029 2.9351694502 2.8800620952 2.8307207459 3.1415926536 3.0574329311 2.9825888767 2.91630358 2.8576792927 
2.8058000847 2.7598010554 2.718901062 4.526799744 4.426884955 4.4046155105 4.3052269283 4.2918546451 4.2807094886 
4.1588146215 4.1588146215 4.1588146215 4.1588146215 3.9875336042 4.0055183285 4.0201070968 4.0321740035 4.042318168 
3.7967995342 3.8356650183 3.8672112905 3.8932795963 3.9151549899 3.9337570603 3.5984456061 3.657329819 3.7058097288 
3.7462412737 3.7803704271 3.809500442 3.8346145692 3.4073543651 3.4813459737 3.5438565869 3.5969754326 3.6424295543 
3.6816134988 3.7156421835 3.7454049075 4.7123889804 4.8004512023 4.6243267584 4.9155579264 4.7123889804 4.5092200343 
5.0674903122 4.8353719722 4.5894059886 4.3572876485 5.2659633393 5.0120975802 4.7123889804 4.4126803806 4.1588146215 
5.5125918794 5.2659633393 4.9155579264 4.5092200343 4.1588146215 3.9121860814 5.7885595667 5.6029703303 5.2659633393 
4.7123889804 4.1588146215 3.8218076305 3.6362183941 6.0560271438 5.9702140275 5.7885595667 5.2659633393 4.1588146215 
3.6362183941 3.4545639333 3.368750817 0.22715816343 0.49462574053 0.3129712797 0.77059342779 0.68021497688 0.49462574053 
1.0172219679 1.0172219679 1.0172219679 1.0172219679 1.2156949949 1.271087727 1.3676273807 1.5707963268 2.1243706857 
1.3676273807 1.447813335 1.5707963268 1.7739652728 2.1243706857 2.6469669131 1.4827341049 1.5707963268 1.6937793186 
1.8705049266 2.1243706857 2.4613776767 2.8286213739 1.5707963268 1.6588585487 1.7739652728 1.9258976586 2.1243706857 
2.3709992258 2.6469669131 2.9144344902 1.7563855631 1.8785697967 1.8563003522 2.0024758186 1.9913306621 1.9779583789 
2.1243706857 2.1243706857 2.1243706857 2.1243706857 2.2408671392 2.2510113037 2.2630782103 2.2776669786 2.295651703 
2.3494282469 2.3680303173 2.3899057108 2.4159740166 2.4475202889 2.486385773 2.448570738 2.4736848652 2.5028148801 
2.5369440334 2.5773755784 2.6258554882 2.6847397011 2.5377803997 2.5675431237 2.6015718084 2.6407557529 2.6862098746 
2.7393287203 2.8018393335 2.8758309421 1.6743954455 1.6743954455 1.7840462375 1.6743954455 1.7840462375 1.8974821136 
1.6743954455 1.7840462375 1.8974821136 2.0119052671 1.6743954455 1.7840462375 1.8974821136 2.0119052671 2.1243706857 
1.6743954455 1.7840462375 1.8974821136 2.0119052671 2.1243706857 2.232221744 1.6743954455 1.7840462375 1.8974821136 
2.0119052671 2.1243706857 2.232221744 2.3334263672 1.6743954455 1.7840462375 1.8974821136 2.0119052671 2.1243706857 
2.232221744 2.3334263672 2.426721652 1.4671972081 1.3575464161 1.4671972081 1.24411054 1.3575464161 1.4671972081 
1.1296873865 1.24411054 1.3575464161 1.4671972081 1.0172219679 1.1296873865 1.24411054 1.3575464161 1.4671972081 
0.90937090954 1.0172219679 1.1296873865 1.24411054 1.3575464161 1.4671972081 0.80816628637 0.90937090954 1.0172219679 
1.1296873865 1.24411054 1.3575464161 1.4671972081 0.71487100155 0.80816628637 0.90937090954 1.0172219679 1.1296873865 
1.24411054 1.3575464161 1.4671972081 0.60381225391 0.57404952988 0.69302191562 0.54002084522 0.66790778838 0.79216440667 
0.50083690068 0.63877777351 0.77356233629 0.90072551443 0.45538277901 0.60464862014 0.75168694275 0.89058134991 1.0172219679 
0.40226393329 0.56421707518 0.72561863695 0.87851444325 1.0172219679 1.139116835 0.33975332011 0.51573716537 0.69407236469 
0.86392567495 1.0172219679 1.1502619915 1.2630228569 0.26576171152 0.45685295248 0.6552068806 0.84594095064 1.0172219679 
1.1636342747 1.2852923014 1.3852070904 0.22715816343 0.3129712797 0.49462574053 0.49462574053 0.68021497688 0.77059342779 
1.0172219679 1.0172219679 1.0172219679 1.0172219679 2.1243706857 1.5707963268 1.3676273807 1.271087727 1.2156949949 
2.6469669131 2.1243706857 1.7739652728 1.5707963268 1.447813335 1.3676273807 2.8286213739 2.4613776767 2.1243706857 
1.8705049266 1.6937793186 1.5707963268 1.4827341049 2.9144344902 2.6469669131 2.3709992258 2.1243706857 1.9258976586 
1.7739652728 1.6588585487 1.5707963268 1.7563855631 1.8563003522 1.8785697967 1.9779583789 1.9913306621 2.0024758186 
2.1243706857 2.1243706857 2.1243706857 2.1243706857 2.295651703 2.2776669786 2.2630782103 2.2510113037 2.2408671392 
2.486385773 2.4475202889 2.4159740166 2.3899057108 2.3680303173 2.3494282469 2.6847397011 2.6258554882 2.5773755784 
2.5369440334 2.5028148801 2.4736848652 2.448570738 2.8758309421 2.8018393335 2.7393287203 2.6862098746 2.6407557529 
2.6015718084 2.5675431237 2.5377803997 5.8604937156 5.901393709 5.9723133995 5.9473927383 6.0216547488 6.0927478736 
5.9992719463 6.0767621038 6.1501452836 6.2190157008 6.0578962336 6.1383094565 6.2134963469 0 0.064169606361 
6.1241815303 6.206940195 6.2831853072 0.069688960264 0.13304002361 0.19043743361 6.1990255847 0 0.07624511221 
0.14487585072 0.20642320337 0.26153055843 0.3108719077 0 0.084159722458 0.15900377685 0.22528907359 0.28391336087 
0.3357925689 0.38179159818 0.42269159155 5.8604937156 5.9723133995 5.901393709 6.0927478736 6.0216547488 5.9473927383 
6.2190157008 6.1501452836 6.0767621038 5.9992719463 0.064169606361 0 6.2134963469 6.1383094565 6.0578962336 
0.19043743361 0.13304002361 0.069688960264 6.2831853072 6.206940195 6.1241815303 0.3108719077 0.26153055843 0.20642320337 
0.14487585072 0.07624511221 6.2831853072 6.1990255847 0.42269159155 0.38179159818 0.3357925689 0.28391336087 0.22528907359 
0.15900377685 0.084159722458 0 5.6793730533 5.7091357773 5.5901633916 5.743164462 5.6152775188 5.4910209005 
5.7823484065 5.6444075337 5.5096229709 5.3824597928 5.8278025282 5.678536687 5.5314983644 5.3926039573 5.2659633393 
5.8809213739 5.718968232 5.5575666702 5.4046708639 5.2659633393 5.1440684722 5.9434319871 5.7674481418 5.5891129425 
5.4192596322 5.2659633393 5.1329233157 5.0201624502 6.0174235957 5.8263323547 5.6279784266 5.4372443565 5.2659633393 
5.1195510325 4.9978930058 4.8979782167 1.3852070904 1.2852923014 1.2630228569 1.1636342747 1.1502619915 1.139116835 
1.0172219679 1.0172219679 1.0172219679 1.0172219679 0.84594095064 0.86392567495 0.87851444325 0.89058134991 0.90072551443 
0.6552068806 0.69407236469 0.72561863695 0.75168694275 0.77356233629 0.79216440667 0.45685295248 0.51573716537 0.56421707518 
0.60464862014 0.63877777351 0.66790778838 0.69302191562 0.26576171152 0.33975332011 0.40226393329 0.45538277901 0.50083690068 
0.54002084522 0.57404952988 0.60381225391 
_paraPhiHalf 1 1002 double
0 3.1415926536 0 3.1415926536 1.5707963268 1.5707963268 1.5707963268 1.5707963268 2.5880182947 
0.5535743589 2.5880182947 0.5535743589 0 0 0 0 3.1415926536 3.1415926536 
3.1415926536 3.1415926536 3.1415926536 0.17788134 0.38438696014 0.60631181711 0.82323535693 1.0172219679 1.1799687454 
1.3118704726 1.4175000338 1.5022335207 0.17788134 0.38438696014 0.60631181711 0.82323535693 1.0172219679 1.1799687454 
1.3118704726 1.4175000338 1.5022335207 0.093902416448 0.17615329733 0.2478725152 0.31035131605 0.36486382811 0.41257334776 
0.45449736604 0.4915044461 0.52432611754 0.093902416448 0.17615329733 0.2478725152 0.31035131605 0.36486382811 0.41257334776 
0.45449736604 0.4915044461 0.52432611754 2.9637113136 2.7572056934 2.5352808365 2.3183572967 2.1243706857 1.9616239082 
1.829722181 1.7240926197 1.6393591329 2.9637113136 2.7572056934 2.5352808365 2.3183572967 2.1243706857 1.9616239082 
1.829722181 1.7240926197 1.6393591329 3.0476902371 2.9654393563 2.8937201384 2.8312413375 2.7767288255 2.7290193058 
2.6870952876 2.6500882075 2.617266536 3.0476902371 2.9654393563 2.8937201384 2.8312413375 2.7767288255 2.7290193058 
2.6870952876 2.6500882075 2.617266536 0 0 0 0 3.1415926536 3.1415926536 
3.1415926536 3.1415926536 3.1415926536 0.17788134 0.38438696014 0.60631181711 0.82323535693 1.0172219679 1.1799687454 
1.3118704726 1.4175000338 1.5022335207 0.17788134 0.38438696014 0.60631181711 0.82323535693 1.0172219679 1.1799687454 
1.3118704726 1.4175000338 1.5022335207 0.093902416448 0.17615329733 0.2478725152 0.31035131605 0.36486382811 0.41257334776 
0.45449736604 0.4915044461 0.52432611754 0.093902416448 0.17615329733 0.2478725152 0.31035131605 0.36486382811 0.41257334776 
0.45449736604 0.4915044461 0.52432611754 2.9637113136 2.7572056934 2.5352808365 2.3183572967 2.1243706857 1.9616239082 
1.829722181 1.7240926197 1.6393591329 2.9637113136 2.7572056934 2.5352808365 2.3183572967 2.1243706857 1.9616239082 
1.829722181 1.7240926197 1.6393591329 3.0476902371 2.9654393563 2.8937201384 2.8312413375 2.7767288255 2.7290193058 
2.6870952876 2.6500882075 2.617266536 3.0476902371 2.9654393563 2.8937201384 2.8312413375 2.7767288255 2.7290193058 
2.6870952876 2.6500882075 2.617266536 1.5707963268 1.5707963268 1.5707963268 1.5707963268 1.5707963268 1.5707963268 
1.5707963268 1.5707963268 1.5707963268 1.6743954455 1.7840462375 1.8974821136 2.0119052671 2.1243706857 2.232221744 
2.3334263672 2.426721652 2.5115728246 1.4671972081 1.3575464161 1.24411054 1.1296873865 1.0172219679 0.90937090954 
0.80816628637 0.71487100155 0.63001982895 1.6743954455 1.7840462375 1.8974821136 2.0119052671 2.1243706857 2.232221744 
2.3334263672 2.426721652 2.5115728246 1.4671972081 1.3575464161 1.24411054 1.1296873865 1.0172219679 0.90937090954 
0.80816628637 0.71487100155 0.63001982895 1.5707963268 1.5707963268 1.5707963268 1.5707963268 1.5707963268 1.5707963268 
1.5707963268 1.5707963268 1.5707963268 1.6743954455 1.7840462375 1.8974821136 2.0119052671 2.1243706857 2.232221744 
2.3334263672 2.426721652 2.5115728246 1.4671972081 1.3575464161 1.24411054 1.1296873865 1.0172219679 0.90937090954 
0.80816628637 0.71487100155 0.63001982895 1.6743954455 1.7840462375 1.8974821136 2.0119052671 2.1243706857 2.232221744 
2.3334263672 2.426721652 2.5115728246 1.4671972081 1.3575464161 1.24411054 1.1296873865 1.0172219679 0.90937090954 
0.80816628637 0.71487100155 0.63001982895 2.6824132222 2.7864913217 2.8992382033 3.0186096618 3.1415926536 3.0186096618 
2.8992382033 2.7864913217 2.6824132222 0.45917943135 0.35510133185 0.2423544503 0.12298299178 0 0.12298299178 
0.2423544503 0.35510133185 0.45917943135 0.22715816343 0.49462574053 0.3129712797 0.77059342779 0.68021497688 0.49462574053 
1.0172219679 1.0172219679 1.0172219679 1.0172219679 1.2156949949 1.271087727 1.3676273807 1.5707963268 2.1243706857 
1.3676273807 1.447813335 1.5707963268 1.7739652728 2.1243706857 2.6469669131 1.4827341049 1.5707963268 1.6937793186 
1.8705049266 2.1243706857 2.4613776767 2.8286213739 1.5707963268 1.6588585487 1.7739652728 1.9258976586 2.1243706857 
2.3709992258 2.6469669131 2.9144344902 0.26576171152 0.33975332011 0.45685295248 0.40226393329 0.51573716537 0.6552068806 
0.45538277901 0.56421707518 0.69407236469 0.84594095064 0.50083690068 0.60464862014 0.72561863695 0.86392567495 1.0172219679 
0.54002084522 0.63877777351 0.75168694275 0.87851444325 1.0172219679 1.1636342747 0.57404952988 0.66790778838 0.77356233629 
0.89058134991 1.0172219679 1.1502619915 1.2852923014 0.60381225391 0.69302191562 0.79216440667 0.90072551443 1.0172219679 
1.139116835 1.2630228569 1.3852070904 0.71487100155 0.80816628637 0.80816628637 0.90937090954 0.90937090954 0.90937090954 
1.0172219679 1.0172219679 1.0172219679 1.0172219679 1.1296873865 1.1296873865 1.1296873865 1.1296873865 1.1296873865 
1.24411054 1.24411054 1.24411054 1.24411054 1.24411054 1.24411054 1.3575464161 1.3575464161 1.3575464161 
1.3575464161 1.3575464161 1.3575464161 1.3575464161 1.4671972081 1.4671972081 1.4671972081 1.4671972081 1.4671972081 
1.4671972081 1.4671972081 1.4671972081 1.6743954455 1.6743954455 1.7840462375 1.6743954455 1.7840462375 1.8974821136 
1.6743954455 1.7840462375 1.8974821136 2.0119052671 1.6743954455 1.7840462375 1.8974821136 2.0119052671 2.1243706857 
1.6743954455 1.7840462375 1.8974821136 2.0119052671 2.1243706857 2.232221744 1.6743954455 1.7840462375 1.8974821136 
2.0119052671 2.1243706857 2.232221744 2.3334263672 1.6743954455 1.7840462375 1.8974821136 2.0119052671 2.1243706857 
2.232221744 2.3334263672 2.426721652 1.7563855631 1.8785697967 1.8563003522 2.0024758186 1.9913306621 1.9779583789 
2.1243706857 2.1243706857 2.1243706857 2.1243706857 2.2408671392 2.2510113037 2.2630782103 2.2776669786 2.295651703 
2.3494282469 2.3680303173 2.3899057108 2.4159740166 2.4475202889 2.486385773 2.448570738 2.4736848652 2.5028148801 
2.5369440334 2.5773755784 2.6258554882 2.6847397011 2.5377803997 2.5675431237 2.6015718084 2.6407557529 2.6862098746 
2.7393287203 2.8018393335 2.8758309421 2.718901062 2.8307207459 2.7598010554 2.95115522 2.8800620952 2.8058000847 
3.0774230472 3.00855263 2.9351694502 2.8576792927 3.0774230472 3.1415926536 3.0719036933 2.9967168029 2.91630358 
2.95115522 3.00855263 3.0719036933 3.1415926536 3.0653475414 2.9825888767 2.8307207459 2.8800620952 2.9351694502 
2.9967168029 3.0653475414 3.1415926536 3.0574329311 2.718901062 2.7598010554 2.8058000847 2.8576792927 2.91630358 
2.9825888767 3.0574329311 3.1415926536 2.718901062 2.7598010554 2.8307207459 2.8058000847 2.8800620952 2.95115522 
2.8576792927 2.9351694502 3.00855263 3.0774230472 2.91630358 2.9967168029 3.0719036933 3.1415926536 3.0774230472 
2.9825888767 3.0653475414 3.1415926536 3.0719036933 3.00855263 2.95115522 3.0574329311 3.1415926536 3.0653475414 