# vtk DataFile Version 5.1
vtk output
ASCII
DATASET POLYDATA
POINTS 1002 float
-10.4448 0.950821 -2.41931 -24.2058 -15.7792 -6.84862 -9.5855 -2.7163 3.8511 
-23.2345 -16.893 -1.95384 -13.287 -7.09335 -3.60348 -13.665 -8.58611 -0.491869 
-21.2705 -3.82011 -1.50597 -21.2125 -4.79982 2.45814 -20.543 -28.8274 -8.0229 
-0.718979 -0.571295 0.0326484 -27.9025 -22.3061 -5.63837 -11.0265 5.62746 3.08188 
-11.4532 0.132142 -2.61651 -12.6266 -0.872403 -2.81191 -13.957 -2.12794 -2.91883 
-15.6117 -3.64351 -3.02738 -17.7437 -5.45039 -3.44026 -19.9496 -7.56618 -4.21488 
-21.6233 -9.81949 -5.06285 -22.7379 -11.9818 -5.78575 -23.571 -13.9709 -6.37254 
-10.1581 0.509934 -2.69313 -9.91548 -0.0611718 -2.94356 -9.76297 -0.841631 -3.16878 
-9.73794 -1.74055 -3.42454 -9.77604 -2.5837 -3.6947 -9.84627 -3.46568 -3.87754 
-10.1611 -4.52853 -3.93643 -10.9332 -5.57898 -3.88449 -12.0655 -6.41048 -3.74721 
-11.3644 0.85856 -2.24487 -12.3759 0.694151 -2.05326 -13.4789 0.402805 -1.86886 
-14.6811 -0.0641773 -1.70276 -15.9373 -0.657625 -1.55333 -17.1664 -1.29115 -1.46128 
-18.3295 -1.94075 -1.45467 -19.4131 -2.59584 -1.4777 -20.3984 -3.22687 -1.48836 
-9.29849 1.44719 -2.41198 -8.09695 1.88903 -2.38523 -6.83282 2.17913 -2.27132 
-5.45602 2.25739 -2.07067 -4.05589 2.15988 -1.86806 -2.87032 1.89352 -1.63856 
-1.99041 1.41566 -1.27882 -1.33446 0.780465 -0.821255 -0.890679 0.0988359 -0.371325 
-10.096 1.70405 -2.12872 -9.81689 2.49652 -1.79264 -9.63732 3.25586 -1.37166 
-9.61463 3.98042 -0.866249 -9.72503 4.63795 -0.285237 -9.85445 5.11916 0.382503 
-10.0172 5.46628 1.09515 -10.3227 5.73245 1.79735 -10.7137 5.8016 2.47012 
-23.6124 -15.57 -6.81023 -22.9573 -15.1446 -6.75451 -22.2404 -14.4806 -6.63326 
-21.4137 -13.6426 -6.37345 -20.5291 -12.6891 -5.95035 -19.6018 -11.5508 -5.3745 
-18.3954 -10.1727 -4.71217 -16.7792 -8.76292 -4.12613 -14.9803 -7.67846 -3.75667 
-24.3814 -14.7686 -6.58045 -24.4311 -13.6246 -6.22104 -24.3612 -12.3455 -5.74823 
-24.1897 -10.9603 -5.18 -23.853 -9.58676 -4.52831 -23.3376 -8.25218 -3.82139 
-22.7623 -6.9143 -3.15168 -22.216 -5.68206 -2.56379 -21.7146 -4.66561 -2.01987 
-24.3241 -17.5 -7.27349 -24.2893 -19.3286 -7.75135 -24.0937 -21.1708 -8.29078 
-23.7524 -23.0743 -8.76554 -23.3377 -25.098 -9.01187 -22.8456 -26.9028 -9.11228 
-22.1384 -28.0667 -9.20866 -21.2985 -28.6667 -9.1359 -20.6956 -28.9276 -8.70324 
-24.8396 -16.9196 -7.12336 -25.3842 -18.0477 -7.34886 -25.8735 -19.1469 -7.5031 
-26.3605 -20.1636 -7.57533 -26.7841 -21.0046 -7.50093 -27.1016 -21.6714 -7.27771 
-27.3926 -22.2183 -7.01134 -27.667 -22.5745 -6.69321 -27.8424 -22.6095 -6.22716 
-10.5849 -3.4205 3.68935 -11.7791 -4.24588 3.49584 -13.2685 -5.16711 3.19908 
-15.1384 -6.17742 2.63822 -17.1959 -7.45088 1.86022 -19.0365 -9.15546 1.03925 
-20.4971 -11.1311 0.157676 -21.6659 -13.1177 -0.742807 -22.5817 -15.0459 -1.45917 
-9.38755 -3.27417 3.54126 -9.24004 -3.92214 3.20995 -9.23016 -4.61196 2.82055 
-9.3987 -5.31897 2.38163 -9.7262 -5.99158 1.90893 -10.2314 -6.58582 1.39135 
-10.9456 -7.1395 0.870708 -11.8153 -7.66757 0.397883 -12.7445 -8.14305 -0.0464958 
-10.405 -2.67102 4.08797 -11.3834 -2.7467 4.31185 -12.6342 -2.92878 4.46034 
-14.136 -3.14036 4.48978 -15.6471 -3.32384 4.36159 -17.0111 -3.51781 4.06864 
-18.2784 -3.77975 3.69671 -19.4292 -4.09884 3.31531 -20.3926 -4.44158 2.90412 
-8.50366 -2.38386 3.76131 -7.3713 -2.05631 3.59104 -6.23175 -1.70955 3.33667 
-5.07907 -1.38906 3.01102 -3.94112 -1.15534 2.63423 -2.92709 -0.973872 2.24847 
-2.06134 -0.807135 1.83616 -1.32853 -0.685744 1.30307 -0.843405 -0.617443 0.658189 
-9.15232 -1.96486 4.12195 -8.7492 -1.08398 4.33428 -8.41811 -0.00469839 4.44879 
-8.24082 1.27213 4.51472 -8.30612 2.63678 4.53505 -8.62453 3.83842 4.4231 
-9.13962 4.65596 4.18769 -9.78533 5.14936 3.8951 -10.4564 5.47305 3.53073 
-22.6932 -16.42 -1.9306 -22.1231 -15.7589 -1.90864 -21.4463 -14.9542 -1.83656 
-20.5869 -14.0485 -1.64419 -19.6209 -13.0362 -1.36369 -18.622 -11.9439 -1.07717 
-17.5178 -10.8817 -0.795125 -16.2772 -9.9417 -0.559405 -14.9714 -9.16395 -0.458828 
-23.4347 -16.0658 -1.70513 -23.5958 -15.0326 -1.40482 -23.6496 -13.8395 -0.996644 
-23.536 -12.5344 -0.470266 -23.2526 -11.1362 0.0976007 -22.894 -9.70397 0.650574 
-22.5352 -8.34437 1.20277 -22.137 -7.09349 1.7216 -21.6745 -5.91205 2.14179 
-23.387 -18.5068 -2.39857 -23.4223 -20.2093 -2.94868 -23.3007 -21.9598 -3.53399 
-22.978 -23.7544 -4.02778 -22.5337 -25.4353 -4.5524 -22.1424 -26.7569 -5.26835 
-21.7621 -27.7527 -6.02069 -21.2428 -28.5193 -6.70164 -20.7389 -28.9132 -7.38925 
-23.8788 -18.2504 -2.24319 -24.4995 -19.5636 -2.57657 -25.1284 -20.7094 -2.94988 
-25.7694 -21.6627 -3.32135 -26.3257 -22.4162 -3.69951 -26.7605 -22.8715 -4.103 
-27.1666 -23.0155 -4.48535 -27.5462 -22.9816 -4.85224 -27.7981 -22.7864 -5.25288 
-13.0546 -7.32063 -3.46492 -12.8827 -7.60815 -3.2883 -12.8175 -7.91059 -3.0737 
-12.7851 -8.17899 -2.8025 -12.7037 -8.40815 -2.45237 -12.7008 -8.57969 -2.0319 
-12.8824 -8.64107 -1.59612 -13.1506 -8.61122 -1.19527 -13.4147 -8.58035 -0.830137 
-15.4876 -8.33029 -3.7195 -17.3844 -10.4429 -4.30476 -18.7168 -13.2133 -5.17544 
-19.7178 -15.9955 -5.9201 -20.551 -18.5261 -6.46449 -21.0785 -21.08 -7.0057 
-21.2402 -23.7101 -7.53679 -21.0789 -26.0419 -7.91913 -20.7467 -27.7555 -8.08426 
-10.9487 -6.57759 -3.70933 -8.8847 -6.28357 -3.79795 -7.28089 -5.75246 -3.5661 
-5.90784 -4.96336 -3.09393 -4.61999 -4.18625 -2.60922 -3.51544 -3.40675 -2.08357 
-2.55132 -2.57553 -1.50626 -1.65503 -1.82372 -0.988112 -0.985584 -1.17615 -0.500148 
-15.395 -9.53844 -0.989889 -16.9919 -11.0583 -1.69781 -18.22 -13.1861 -2.52168 
-19.1552 -15.6154 -3.3306 -20.0439 -17.9512 -4.11409 -20.8168 -20.2908 -4.90382 
-21.1752 -22.9538 -5.71356 -21.0702 -25.6369 -6.54883 -20.7554 -27.6664 -7.34304 
-11.672 -7.98095 -0.327287 -9.5145 -7.61424 -0.156652 -7.42365 -7.30894 0.080907 
-5.6174 -6.81325 0.285436 -4.19635 -6.04201 0.336706 -3.08624 -5.11578 0.265658 
-2.15217 -4.07359 0.174552 -1.38224 -2.88567 0.112313 -0.882665 -1.66878 0.0718564 
-21.5193 -3.68126 -1.2048 -21.7646 -3.54408 -0.872327 -22.0032 -3.4114 -0.463195 
-22.1894 -3.28164 0.0949258 -22.2508 -3.23348 0.778802 -22.1905 -3.35862 1.42556 
-22.0259 -3.61984 1.88498 -21.7555 -3.95518 2.15719 -21.4561 -4.36104 2.33038 
-22.3945 -4.97657 -1.88353 -23.6003 -6.34363 -2.35509 -24.7948 -7.95133 -2.87457 
-25.9116 -9.74165 -3.35677 -26.9379 -11.5048 -3.77403 -27.723 -13.2451 -4.195 
-28.0662 -15.3818 -4.68148 -28.0672 -17.988 -5.16353 -27.9853 -20.4654 -5.49886 
-20.3239 -2.63059 -0.985767 -19.3185 -1.35743 -0.448887 -18.2766 -0.093704 0.0865388 
-17.217 1.03545 0.633187 -16.1078 2.03717 1.21054 -14.9652 3.00633 1.72556 
-13.9146 3.94166 2.10786 -12.9822 4.74249 2.45404 -12.0417 5.31541 2.80901 
-22.3138 -5.93221 1.77932 -23.4698 -7.28811 0.991179 -24.623 -8.87936 0.132693 
-25.7799 -10.6886 -0.733045 -26.8798 -12.6216 -1.52377 -27.684 -14.598 -2.24408 
-28.0229 -16.6503 -3.04795 -28.0372 -18.7625 -3.98905 -27.9704 -20.7227 -4.90029 
-20.2762 -3.49334 3.01561 -19.3703 -2.19653 3.57878 -18.4941 -0.923701 4.07743 
-17.4942 0.379472 4.38012 -16.2811 1.65051 4.44543 -14.959 2.73649 4.35677 
-13.7332 3.65773 4.16983 -12.736 4.48516 3.88227 -11.8851 5.15744 3.50796 
-20.6555 -29.6524 -8.2564 -21.3505 -30.2228 -8.36627 -22.6288 -30.4891 -8.28144 
-23.9936 -30.219 -7.9953 -24.9916 -29.3809 -7.64159 -25.7843 -28.1957 -7.29735 
-26.6178 -26.8467 -6.89813 -27.3247 -25.4393 -6.456 -27.7276 -23.9626 -6.04606 
-0.870504 0.467803 0.366594 -1.40036 1.56621 0.696785 -2.21836 2.63674 0.97538 
-3.20624 3.60848 1.26086 -4.29157 4.5102 1.59064 -5.46368 5.329 1.88458 
-6.77534 5.87688 2.16487 -8.23766 6.03912 2.51648 -9.71668 5.9154 2.86214 
-11.2977 -0.385686 -2.90438 -11.2029 -1.10344 -3.12519 -12.6092 -1.52483 -3.07486 
-11.1932 -2.02196 -3.31961 -12.6571 -2.3891 -3.24421 -14.1187 -2.92173 -3.13212 
-11.2737 -2.89341 -3.57886 -12.8172 -3.32699 -3.4247 -14.4293 -3.86328 -3.3072 
-16.1133 -4.59523 -3.28452 -11.4502 -3.65722 -3.81221 -13.1942 -4.15708 -3.66645 
-14.9775 -4.857 -3.55832 -16.823 -5.72339 -3.59826 -18.5487 -6.68088 -3.85405 
-11.8657 -4.60321 -3.87595 -13.8864 -5.09807 -3.81633 -15.8519 -5.96527 -3.85156 
-17.681 -7.0379 -4.02579 -19.3436 -8.1424 -4.3518 -20.6608 -9.08977 -4.74868 
-12.6932 -5.73455 -3.81974 -14.8502 -6.33895 -3.85766 -16.9114 -7.3518 -4.09666 
-18.5763 -8.54013 -4.49721 -19.9629 -9.71008 -4.94345 -21.1173 -10.7129 -5.33721 
-22.0134 -11.4552 -5.61674 -13.8324 -6.77369 -3.75979 -15.8844 -7.62322 -3.94593 
-17.8106 -8.8436 -4.37175 -19.2615 -10.1153 -4.94856 -20.3619 -11.248 -5.50848 
-21.3312 -12.235 -5.92836 -22.1755 -13.0379 -6.17166 -22.9104 -13.606 -6.29417 
-8.90221 0.943165 -2.68859 -7.59771 1.27786 -2.65503 -8.5404 0.286913 -2.94891 
-6.23359 1.44565 -2.4968 -7.13098 0.501208 -2.90625 -8.30987 -0.566524 -3.20561 
-4.82121 1.41131 -2.25712 -5.74492 0.524468 -2.72467 -6.86309 -0.472943 -3.14534 
-8.27796 -1.52719 -3.45633 -3.54017 1.16784 -2.045 -4.46486 0.32539 -2.49823 
-5.55137 -0.634543 -2.94708 -6.88284 -1.58073 -3.31394 -8.35835 -2.52914 -3.6506 
-2.55348 0.720477 -1.76884 -3.40699 -0.0808888 -2.25658 -4.43356 -1.01762 -2.71695 
-5.67794 -1.91593 -3.06829 -7.11857 -2.78238 -3.43083 -8.53391 -3.67957 -3.80701 
-1.82008 0.134959 -1.34865 -2.6103 -0.611453 -1.86508 -3.55049 -1.50961 -2.39537 
-4.67682 -2.39336 -2.8161 -6.08248 -3.2123 -3.17556 -7.51823 -4.09854 -3.62392 
-8.98533 -4.90068 -3.92573 -1.28201 -0.509235 -0.897564 -2.03324 -1.19414 -1.38955 
-2.94131 -2.02612 -1.9368 -3.95058 -2.89752 -2.47907 -5.22074 -3.68834 -2.92065 
-6.65514 -4.53588 -3.38764 -8.08841 -5.35097 -3.80945 -9.81967 -5.89521 -3.89787 
-1.32952 -2.36061 -0.49587 -1.96923 -3.65092 -0.516385 -2.14888 -3.09116 -1.05597 
-2.78358 -4.87839 -0.49349 -2.82712 -4.44553 -1.17194 -3.13298 -3.9049 -1.65962 
-3.74859 -5.96091 -0.379753 -3.61394 -5.72656 -1.18136 -3.8399 -5.28492 -1.81223 
-4.20876 -4.72749 -2.24864 -5.02462 -6.87875 -0.27596 -4.66864 -6.82922 -1.04932 
-4.69989 -6.55884 -1.81113 -5.02366 -6.07478 -2.36705 -5.42169 -5.50118 -2.76915 
[...]
POINT_DATA 1002
FIELD FieldData 4
_paraPhi 1 1002 double
6.2831853072 3.1415926536 6.2831853072 3.1415926536 4.7123889804 4.7123889804 1.5707963268 1.5707963268 3.6951670125 
5.7296109483 2.5880182947 0.5535743589 6.2831853072 6.2831853072 6.2831853072 6.2831853072 3.1415926536 3.1415926536 
3.1415926536 3.1415926536 3.1415926536 6.1053039672 5.898798347 5.6768734901 5.4599499503 5.2659633393 5.1032165617 
4.9713148346 4.8656852733 4.7809517865 0.17788134 0.38438696014 0.60631181711 0.82323535693 1.0172219679 1.1799687454 
1.3118704726 1.4175000338 1.5022335207 6.1892828907 6.1070320098 6.035312792 5.9728339911 5.9183214791 5.8706119594 
5.8286879411 5.7916808611 5.7588591896 0.093902416448 0.17615329733 0.2478725152 0.31035131605 0.36486382811 0.41257334776 
0.45449736604 0.4915044461 0.52432611754 3.3194739936 3.5259796137 3.7479044707 3.9648280105 4.1588146215 4.321561399 
4.4534631262 4.5590926874 4.6438261743 2.9637113136 2.7572056934 2.5352808365 2.3183572967 2.1243706857 1.9616239082 
1.829722181 1.7240926197 1.6393591329 3.23549507 3.3177459509 3.3894651688 3.4519439696 3.5064564817 3.5541660013 
3.5960900196 3.6330970997 3.6659187711 3.0476902371 2.9654393563 2.8937201384 2.8312413375 2.7767288255 2.7290193058 
2.6870952876 2.6500882075 2.617266536 6.2831853072 6.2831853072 6.2831853072 6.2831853072 3.1415926536 3.1415926536 
3.1415926536 3.1415926536 3.1415926536 6.1053039672 5.898798347 5.6768734901 5.4599499503 5.2659633393 5.1032165617 
4.9713148346 4.8656852733 4.7809517865 0.17788134 0.38438696014 0.60631181711 0.82323535693 1.0172219679 1.1799687454 
1.3118704726 1.4175000338 1.5022335207 6.1892828907 6.1070320098 6.035312792 5.9728339911 5.9183214791 5.8706119594 
5.8286879411 5.7916808611 5.7588591896 0.093902416448 0.17615329733 0.2478725152 0.31035131605 0.36486382811 0.41257334776 
0.45449736604 0.4915044461 0.52432611754 3.3194739936 3.5259796137 3.7479044707 3.9648280105 4.1588146215 4.321561399 
4.4534631262 4.5590926874 4.6438261743 2.9637113136 2.7572056934 2.5352808365 2.3183572967 2.1243706857 1.9616239082 
1.829722181 1.7240926197 1.6393591329 3.23549507 3.3177459509 3.3894651688 3.4519439696 3.5064564817 3.5541660013 
3.5960900196 3.6330970997 3.6659187711 3.0476902371 2.9654393563 2.8937201384 2.8312413375 2.7767288255 2.7290193058 
2.6870952876 2.6500882075 2.617266536 4.7123889804 4.7123889804 4.7123889804 4.7123889804 4.7123889804 4.7123889804 
4.7123889804 4.7123889804 4.7123889804 4.6087898617 4.4991390697 4.3857031936 4.2712800401 4.1588146215 4.0509635631 
3.94975894 3.8564636551 3.7716124825 4.8159880991 4.9256388911 5.0390747672 5.1534979207 5.2659633393 5.3738143976 
5.4750190208 5.5683143056 5.6531654782 4.6087898617 4.4991390697 4.3857031936 4.2712800401 4.1588146215 4.0509635631 
3.94975894 3.8564636551 3.7716124825 4.8159880991 4.9256388911 5.0390747672 5.1534979207 5.2659633393 5.3738143976 
5.4750190208 5.5683143056 5.6531654782 1.5707963268 1.5707963268 1.5707963268 1.5707963268 1.5707963268 1.5707963268 
1.5707963268 1.5707963268 1.5707963268 1.6743954455 1.7840462375 1.8974821136 2.0119052671 2.1243706857 2.232221744 
2.3334263672 2.426721652 2.5115728246 1.4671972081 1.3575464161 1.24411054 1.1296873865 1.0172219679 0.90937090954 
0.80816628637 0.71487100155 0.63001982895 1.6743954455 1.7840462375 1.8974821136 2.0119052671 2.1243706857 2.232221744 
2.3334263672 2.426721652 2.5115728246 1.4671972081 1.3575464161 1.24411054 1.1296873865 1.0172219679 0.90937090954 
0.80816628637 0.71487100155 0.63001982895 3.6007720849 3.4966939854 3.3839471039 3.2645756454 3.1415926536 3.0186096618 
2.8992382033 2.7864913217 2.6824132222 5.8240058758 5.9280839753 6.0408308569 6.1602023154 6.2831853072 0.12298299178 
0.2423544503 0.35510133185 0.45917943135 6.0560271438 5.7885595667 5.9702140275 5.5125918794 5.6029703303 5.7885595667 
5.2659633393 5.2659633393 5.2659633393 5.2659633393 5.0674903122 5.0120975802 4.9155579264 4.7123889804 4.1588146215 
4.9155579264 4.8353719722 4.7123889804 4.5092200343 4.1588146215 3.6362183941 4.8004512023 4.7123889804 4.5894059886 
4.4126803806 4.1588146215 3.8218076305 3.4545639333 4.7123889804 4.6243267584 4.5092200343 4.3572876485 4.1588146215 
3.9121860814 3.6362183941 3.368750817 6.0174235957 5.9434319871 5.8263323547 5.8809213739 5.7674481418 5.6279784266 
5.8278025282 5.718968232 5.5891129425 5.4372443565 5.7823484065 5.678536687 5.5575666702 5.4192596322 5.2659633393 
5.743164462 5.6444075337 5.5314983644 5.4046708639 5.2659633393 5.1195510325 5.7091357773 5.6152775188 5.5096229709 
5.3926039573 5.2659633393 5.1329233157 4.9978930058 5.6793730533 5.5901633916 5.4910209005 5.3824597928 5.2659633393 
5.1440684722 5.0201624502 4.8979782167 5.5683143056 5.4750190208 5.4750190208 5.3738143976 5.3738143976 5.3738143976 
5.2659633393 5.2659633393 5.2659633393 5.2659633393 5.1534979207 5.1534979207 5.1534979207 5.1534979207 5.1534979207 
5.0390747672 5.0390747672 5.0390747672 5.0390747672 5.0390747672 5.0390747672 4.9256388911 4.9256388911 4.9256388911 
4.9256388911 4.9256388911 4.9256388911 4.9256388911 4.8159880991 4.8159880991 4.8159880991 4.8159880991 4.8159880991 
4.8159880991 4.8159880991 4.8159880991 4.6087898617 4.6087898617 4.4991390697 4.6087898617 4.4991390697 4.3857031936 
4.6087898617 4.4991390697 4.3857031936 4.2712800401 4.6087898617 4.4991390697 4.3857031936 4.2712800401 4.1588146215 
4.6087898617 4.4991390697 4.3857031936 4.2712800401 4.1588146215 4.0509635631 4.6087898617 4.4991390697 4.3857031936 
4.2712800401 4.1588146215 4.0509635631 3.94975894 4.6087898617 4.4991390697 4.3857031936 4.2712800401 4.1588146215 
4.0509635631 3.94975894 3.8564636551 4.526799744 4.4046155105 4.426884955 4.2807094886 4.2918546451 4.3052269283 
4.1588146215 4.1588146215 4.1588146215 4.1588146215 4.042318168 4.0321740035 4.0201070968 4.0055183285 3.9875336042 
3.9337570603 3.9151549899 3.8932795963 3.8672112905 3.8356650183 3.7967995342 3.8346145692 3.809500442 3.7803704271 
3.7462412737 3.7058097288 3.657329819 3.5984456061 3.7454049075 3.7156421835 3.6816134988 3.6424295543 3.5969754326 
3.5438565869 3.4813459737 3.4073543651 3.5642842451 3.4524645613 3.5233842518 3.3320300872 3.403123212 3.4773852225 
3.20576226 3.2746326772 3.348015857 3.4255060145 3.0774230472 3.1415926536 3.2112816139 3.2864685043 3.3668817272 
2.95115522 3.00855263 3.0719036933 3.1415926536 3.2178377658 3.3005964304 2.8307207459 2.8800620952 2.9351694502 
2.9967168029 3.0653475414 3.1415926536 3.225752376 2.718901062 2.7598010554 2.8058000847 2.8576792927 2.91630358 
2.9825888767 3.0574329311 3.1415926536 3.5642842451 3.5233842518 3.4524645613 3.4773852225 3.403123212 3.3320300872 
3.4255060145 3.348015857 3.2746326772 3.20576226 3.3668817272 3.2864685043 3.2112816139 3.1415926536 3.0774230472 
3.3005964304 3.2178377658 3.1415926536 3.0719036933 3.00855263 2.95115522 3.225752376 3.1415926536 3.0653475414 
2.9967168029 2.9351694502 2.8800620952 2.8307207459 3.1415926536 3.0574329311 2.9825888767 2.91630358 2.8576792927 
2.8058000847 2.7598010554 2.718901062 4.526799744 4.426884955 4.4046155105 4.3052269283 4.2918546451 4.2807094886 
4.1588146215 4.1588146215 4.1588146215 4.1588146215 3.9875336042 4.0055183285 4.0201070968 4.0321740035 4.042318168 
3.7967995342 3.8356650183 3.8672112905 3.8932795963 3.9151549899 3.9337570603 3.5984456061 3.657329819 3.7058097288 
3.7462412737 3.7803704271 3.809500442 3.8346145692 3.4073543651 3.4813459737 3.5438565869 3.5969754326 3.6424295543 
3.6816134988 3.7156421835 3.7454049075 4.7123889804 4.8004512023 4.6243267584 4.9155579264 4.7123889804 4.5092200343 
5.0674903122 4.8353719722 4.5894059886 4.3572876485 5.2659633393 5.0120975802 4.7123889804 4.4126803806 4.1588146215 
5.5125918794 5.2659633393 4.9155579264 4.5092200343 4.1588146215 3.9121860814 5.7885595667 5.6029703303 5.2659633393 
4.7123889804 4.1588146215 3.8218076305 3.6362183941 6.0560271438 5.9702140275 5.7885595667 5.2659633393 4.1588146215 
3.6362183941 3.4545639333 3.368750817 0.22715816343 0.49462574053 0.3129712797 0.77059342779 0.68021497688 0.49462574053 
1.0172219679 1.0172219679 1.0172219679 1.0172219679 1.2156949949 1.271087727 1.3676273807 1.5707963268 2.1243706857 
1.3676273807 1.447813335 1.5707963268 1.7739652728 2.1243706857 2.6469669131 1.4827341049 1.5707963268 1.6937793186 
1.8705049266 2.1243706857 2.4613776767 2.8286213739 1.5707963268 1.6588585487 1.7739652728 1.9258976586 2.1243706857 
2.3709992258 2.6469669131 2.9144344902 1.7563855631 1.8785697967 1.8563003522 2.0024758186 1.9913306621 1.9779583789 
2.1243706857 2.1243706857 2.1243706857 2.1243706857 2.2408671392 2.2510113037 2.2630782103 2.2776669786 2.295651703 
2.3494282469 2.3680303173 2.3899057108 2.4159740166 2.4475202889 2.486385773 2.448570738 2.4736848652 2.5028148801 
2.5369440334 2.5773755784 2.6258554882 2.6847397011 2.5377803997 2.5675431237 2.6015718084 2.6407557529 2.6862098746 
2.7393287203 2.8018393335 2.8758309421 1.6743954455 1.6743954455 1.7840462375 1.6743954455 1.7840462375 1.8974821136 
1.6743954455 1.7840462375 1.8974821136 2.0119052671 1.6743954455 1.7840462375 1.8974821136 2.0119052671 2.1243706857 
1.6743954455 1.7840462375 1.8974821136 2.0119052671 2.1243706857 2.232221744 1.6743954455 1.7840462375 1.8974821136 
2.0119052671 2.1243706857 2.232221744 2.3334263672 1.6743954455 1.7840462375 1.8974821136 2.0119052671 2.1243706857 
2.232221744 2.3334263672 2.426721652 1.4671972081 1.3575464161 1.4671972081 1.24411054 1.3575464161 1.4671972081 
1.1296873865 1.24411054 1.3575464161 1.4671972081 1.0172219679 1.1296873865 1.24411054 1.3575464161 1.4671972081 
0.90937090954 1.0172219679 1.1296873865 1.24411054 1.3575464161 1.4671972081 0.80816628637 0.90937090954 1.0172219679 
1.1296873865 1.24411054 1.3575464161 1.4671972081 0.71487100155 0.80816628637 0.90937090954 1.0172219679 1.1296873865 
1.24411054 1.3575464161 1.4671972081 0.60381225391 0.57404952988 0.69302191562 0.54002084522 0.66790778838 0.79216440667 
0.50083690068 0.63877777351 0.77356233629 0.90072551443 0.45538277901 0.60464862014 0.75168694275 0.89058134991 1.0172219679 
0.40226393329 0.56421707518 0.72561863695 0.87851444325 1.0172219679 1.139116835 0.33975332011 0.51573716537 0.69407236469 
0.86392567495 1.0172219679 1.1502619915 1.2630228569 0.26576171152 0.45685295248 0.6552068806 0.84594095064 1.0172219679 
1.1636342747 1.2852923014 1.3852070904 0.22715816343 0.3129712797 0.49462574053 0.49462574053 0.68021497688 0.77059342779 
1.0172219679 1.0172219679 1.0172219679 1.0172219679 2.1243706857 1.5707963268 1.3676273807 1.271087727 1.2156949949 
2.6469669131 2.1243706857 1.7739652728 1.5707963268 1.447813335 1.3676273807 2.8286213739 2.4613776767 2.1243706857 
1.8705049266 1.6937793186 1.5707963268 1.4827341049 2.9144344902 2.6469669131 2.3709992258 2.1243706857 1.9258976586 
1.7739652728 1.6588585487 1.5707963268 1.7563855631 1.8563003522 1.8785697967 1.9779583789 1.9913306621 2.0024758186 
2.1243706857 2.1243706857 2.1243706857 2.1243706857 2.295651703 2.2776669786 2.2630782103 2.2510113037 2.2408671392 
2.486385773 2.4475202889 2.4159740166 2.3899057108 2.3680303173 2.3494282469 2.6847397011 2.6258554882 2.5773755784 
2.5369440334 2.5028148801 2.4736848652 2.448570738 2.8758309421 2.8018393335 2.7393287203 2.6862098746 2.6407557529 
2.6015718084 2.5675431237 2.5377803997 5.8604937156 5.901393709 5.9723133995 5.9473927383 6.0216547488 6.0927478736 
5.9992719463 6.0767621038 6.1501452836 6.2190157008 6.0578962336 6.1383094565 6.2134963469 0 0.064169606361 
6.1241815303 6.206940195 6.2831853072 0.069688960264 0.13304002361 0.19043743361 6.1990255847 0 0.07624511221 
0.14487585072 0.20642320337 0.26153055843 0.3108719077 0 0.084159722458 0.15900377685 0.22528907359 0.28391336087 
0.3357925689 0.38179159818 0.42269159155 5.8604937156 5.9723133995 5.901393709 6.0927478736 6.0216547488 5.9473927383 
6.2190157008 6.1501452836 6.0767621038 5.9992719463 0.064169606361 0 6.2134963469 6.1383094565 6.0578962336 
0.19043743361 0.13304002361 0.069688960264 6.2831853072 6.206940195 6.1241815303 0.3108719077 0.26153055843 0.20642320337 
0.14487585072 0.07624511221 6.2831853072 6.1990255847 0.42269159155 0.38179159818 0.3357925689 0.28391336087 0.22528907359 
0.15900377685 0.084159722458 0 5.6793730533 5.7091357773 5.5901633916 5.743164462 5.6152775188 5.4910209005 
5.7823484065 5.6444075337 5.5096229709 5.3824597928 5.8278025282 5.678536687 5.5314983644 5.3926039573 5.2659633393 
5.8809213739 5.718968232 5.5575666702 5.4046708639 5.2659633393 5.1440684722 5.9434319871 5.7674481418 5.5891129425 
5.4192596322 5.2659633393 5.1329233157 5.0201624502 6.0174235957 5.8263323547 5.6279784266 5.4372443565 5.2659633393 
5.1195510325 4.9978930058 4.8979782167 1.3852070904 1.2852923014 1.2630228569 1.1636342747 1.1502619915 1.139116835 
1.0172219679 1.0172219679 1.0172219679 1.0172219679 0.84594095064 0.86392567495 0.87851444325 0.89058134991 0.90072551443 
0.6552068806 0.69407236469 0.72561863695 0.75168694275 0.77356233629 0.79216440667 0.45685295248 0.51573716537 0.56421707518 
0.60464862014 0.63877777351 0.66790778838 0.69302191562 0.26576171152 0.33975332011 0.40226393329 0.45538277901 0.50083690068 
0.54002084522 0.57404952988 0.60381225391 
_paraPhiHalf 1 1002 double
0 3.1415926536 0 3.1415926536 1.5707963268 1.5707963268 1.5707963268 1.5707963268 2.5880182947 
0.5535743589 2.5880182947 0.5535743589 0 0 0 0 3.1415926536 3.1415926536 
3.1415926536 3.1415926536 3.1415926536 0.17788134 0.38438696014 0.60631181711 0.82323535693 1.0172219679 1.1799687454 
1.3118704726 1.4175000338 1.5022335207 0.17788134 0.38438696014 0.60631181711 0.82323535693 1.0172219679 1.1799687454 
1.3118704726 1.4175000338 1.5022335207 0.093902416448 0.17615329733 0.2478725152 0.31035131605 0.36486382811 0.41257334776 
0.45449736604 0.4915044461 0.52432611754 0.093902416448 0.17615329733 0.2478725152 0.31035131605 0.36486382811 0.41257334776 
0.45449736604 0.4915044461 0.52432611754 2.9637113136 2.7572056934 2.5352808365 2.3183572967 2.1243706857 1.9616239082 
1.829722181 1.7240926197 1.6393591329 2.9637113136 2.7572056934 2.5352808365 2.3183572967 2.1243706857 1.9616239082 
1.829722181 1.7240926197 1.6393591329 3.0476902371 2.9654393563 2.8937201384 2.8312413375 2.7767288255 2.7290193058 
2.6870952876 2.6500882075 2.617266536 3.0476902371 2.9654393563 2.8937201384 2.8312413375 2.7767288255 2.7290193058 
2.6870952876 2.6500882075 2.617266536 0 0 0 0 3.1415926536 3.1415926536 
3.1415926536 3.1415926536 3.1415926536 0.17788134 0.38438696014 0.60631181711 0.82323535693 1.0172219679 1.1799687454 
1.3118704726 1.4175000338 1.5022335207 0.17788134 0.38438696014 0.60631181711 0.82323535693 1.0172219679 1.1799687454 
1.3118704726 1.4175000338 1.5022335207 0.093902416448 0.17615329733 0.2478725152 0.31035131605 0.36486382811 0.41257334776 
0.45449736604 0.4915044461 0.52432611754 0.093902416448 0.17615329733 0.2478725152 0.31035131605 0.36486382811 0.41257334776 
0.45449736604 0.4915044461 0.52432611754 2.9637113136 2.7572056934 2.5352808365 2.3183572967 2.1243706857 1.9616239082 
1.829722181 1.7240926197 1.6393591329 2.9637113136 2.7572056934 2.5352808365 2.3183572967 2.1243706857 1.9616239082 
1.829722181 1.7240926197 1.6393591329 3.0476902371 2.9654393563 2.8937201384 2.8312413375 2.7767288255 2.7290193058 
2.6870952876 2.6500882075 2.617266536 3.0476902371 2.9654393563 2.8937201384 2.8312413375 2.7767288255 2.7290193058 
2.6870952876 2.6500882075 2.617266536 1.5707963268 1.5707963268 1.5707963268 1.5707963268 1.5707963268 1.5707963268 
1.5707963268 1.5707963268 1.5707963268 1.6743954455 1.7840462375 1.8974821136 2.0119052671 2.1243706857 2.232221744 
2.3334263672 2.426721652 2.5115728246 1.4671972081 1.3575464161 1.24411054 1.1296873865 1.0172219679 0.90937090954 
0.80816628637 0.71487100155 0.63001982895 1.6743954455 1.7840462375 1.8974821136 2.0119052671 2.1243706857 2.232221744 
2.3334263672 2.426721652 2.5115728246 1.4671972081 1.3575464161 1.24411054 1.1296873865 1.0172219679 0.90937090954 
0.80816628637 0.71487100155 0.63001982895 1.5707963268 1.5707963268 1.5707963268 1.5707963268 1.5707963268 1.5707963268 
1.5707963268 1.5707963268 1.5707963268 1.6743954455 1.7840462375 1.8974821136 2.0119052671 2.1243706857 2.232221744 
2.3334263672 2.426721652 2.5115728246 1.4671972081 1.3575464161 1.24411054 1.1296873865 1.0172219679 0.90937090954 
0.80816628637 0.71487100155 0.63001982895 1.6743954455 1.7840462375 1.8974821136 2.0119052671 2.1243706857 2.232221744 
2.3334263672 2.426721652 2.5115728246 1.4671972081 1.3575464161 1.24411054 1.1296873865 1.0172219679 0.90937090954 
0.80816628637 0.71487100155 0.63001982895 2.6824132222 2.7864913217 2.8992382033 3.0186096618 3.1415926536 3.0186096618 
2.8992382033 2.7864913217 2.6824132222 0.45917943135 0.35510133185 0.2423544503 0.12298299178 0 0.12298299178 
0.2423544503 0.35510133185 0.45917943135 0.22715816343 0.49462574053 0.3129712797 0.77059342779 0.68021497688 0.49462574053 
1.0172219679 1.0172219679 1.0172219679 1.0172219679 1.2156949949 1.271087727 1.3676273807 1.5707963268 2.1243706857 
1.3676273807 1.447813335 1.5707963268 1.7739652728 2.1243706857 2.6469669131 1.4827341049 1.5707963268 1.6937793186 
1.8705049266 2.1243706857 2.4613776767 2.8286213739 1.5707963268 1.6588585487 1.7739652728 1.9258976586 2.1243706857 
2.3709992258 2.6469669131 2.9144344902 0.26576171152 0.33975332011 0.45685295248 0.40226393329 0.51573716537 0.6552068806 
0.45538277901 0.56421707518 0.69407236469 0.84594095064 0.50083690068 0.60464862014 0.72561863695 0.86392567495 1.0172219679 
0.54002084522 0.63877777351 0.75168694275 0.87851444325 1.0172219679 1.1636342747 0.57404952988 0.66790778838 0.77356233629 
0.89058134991 1.0172219679 1.1502619915 1.2852923014 0.60381225391 0.69302191562 0.79216440667 0.90072551443 1.0172219679 
1.139116835 1.2630228569 1.3852070904 0.71487100155 0.80816628637 0.80816628637 0.90937090954 0.90937090954 0.90937090954 
1.0172219679 1.0172219679 1.0172219679 1.0172219679 1.1296873865 1.1296873865 1.1296873865 1.1296873865 1.1296873865 
1.24411054 1.24411054 1.24411054 1.24411054 1.24411054 1.24411054 1.3575464161 1.3575464161 1.3575464161 
1.3575464161 1.3575464161 1.3575464161 1.3575464161 1.4671972081 1.4671972081 1.4671972081 1.4671972081 1.4671972081 
1.4671972081 1.4671972081 1.4671972081 1.6743954455 1.6743954455 1.7840462375 1.6743954455 1.7840462375 1.8974821136 
1.6743954455 1.7840462375 1.8974821136 2.0119052671 1.6743954455 1.7840462375 1.8974821136 2.0119052671 2.1243706857 
1.6743954455 1.7840462375 1.8974821136 2.0119052671 2.1243706857 2.232221744 1.6743954455 1.7840462375 1.8974821136 
2.0119052671 2.1243706857 2.232221744 2.3334263672 1.6743954455 1.7840462375 1.8974821136 2.0119052671 2.1243706857 
2.232221744 2.3334263672 2.426721652 1.7563855631 1.8785697967 1.8563003522 2.0024758186 1.9913306621 1.9779583789 
2.1243706857 2.1243706857 2.1243706857 2.1243706857 2.2408671392 2.2510113037 2.2630782103 2.2776669786 2.295651703 
2.3494282469 2.3680303173 2.3899057108 2.4159740166 2.4475202889 2.486385773 2.448570738 2.4736848652 2.5028148801 
2.5369440334 2.5773755784 2.6258554882 2.6847397011 2.5377803997 2.5675431237 2.6015718084 2.6407557529 2.6862098746 
2.7393287203 2.8018393335 2.8758309421 2.718901062 2.8307207459 2.7598010554 2.95115522 2.8800620952 2.8058000847 
3.0774230472 3.00855263 2.9351694502 2.8576792927 3.0774230472 3.1415926536 3.0719036933 2.9967168029 2.91630358 
2.95115522 3.00855263 3.0719036933 3.1415926536 3.0653475414 2.9825888767 2.8307207459 2.8800620952 2.9351694502 
2.9967168029 3.0653475414 3.1415926536 3.0574329311 2.718901062 2.7598010554 2.8058000847 2.8576792927 2.91630358 
2.9825888767 3.0574329311 3.1415926536 2.718901062 2.7598010554 2.8307207459 2.8058000847 2.8800620952 2.95115522 
2.8576792927 2.9351694502 3.00855263 3.0774230472 2.91630358 2.9967168029 3.0719036933 3.1415926536 3.0774230472 
2.9825888767 3.0653475414 3.1415926536 3.0719036933 3.00855263 2.95115522 3.0574329311 3.1415926536 3.0653475414 