# vtk DataFile Version 5.1
vtk output
ASCII
DATASET POLYDATA
POINTS 1002 float
-10.5578 0.191198 -1.99677 -22.6259 -16.296 -4.02196 -8.7344 -2.58133 4.23974 
-21.4181 -17.098 0.65701 -12.3119 -7.6152 -2.86787 -12.5092 -8.75534 0.532145 
-20.5545 -4.73916 -0.193464 -20.4606 -5.40574 3.91426 -17.2576 -28.934 -3.72214 
-0.820253 -0.572037 0.0329581 -25.7211 -22.5538 -1.66797 -10.6167 5.36915 2.84727 
-11.4161 -0.662134 -2.08899 -12.4958 -1.62849 -2.18804 -13.7949 -2.74806 -2.22818 
-15.2781 -4.15763 -2.22349 -16.9954 -5.91207 -2.38739 -18.8591 -7.9006 -2.826 
-20.4717 -10.0482 -3.30215 -21.561 -12.2798 -3.62187 -22.2215 -14.4073 -3.83947 
-10.2758 -0.268165 -2.27768 -10.0129 -0.83431 -2.57545 -9.77724 -1.47776 -2.86184 
-9.60852 -2.19614 -3.09143 -9.58313 -3.11065 -3.22153 -9.73537 -4.23865 -3.25188 
-10.0407 -5.32364 -3.22348 -10.5374 -6.18478 -3.15738 -11.3085 -6.90804 -3.03722 
-11.3815 0.0777189 -1.77945 -12.3401 -0.103905 -1.5706 -13.399 -0.378209 -1.32802 
-14.4673 -0.801185 -1.0204 -15.538 -1.37728 -0.728846 -16.6532 -2.03457 -0.521679 
-17.7439 -2.73086 -0.369401 -18.7468 -3.44468 -0.265059 -19.6876 -4.12358 -0.217771 
-9.55375 0.719317 -2.08665 -8.37353 1.17795 -2.13159 -6.99118 1.5247 -2.08532 
-5.54948 1.76344 -2.00313 -4.21735 1.83717 -1.9173 -3.06382 1.62947 -1.75336 
-2.13836 1.17224 -1.45965 -1.46497 0.623609 -1.03594 -1.02483 0.0470199 -0.510065 
-10.2756 0.958825 -1.76797 -10.0126 1.77145 -1.49641 -9.7773 2.5676 -1.14606 
-9.61155 3.25819 -0.681791 -9.52363 3.86007 -0.115579 -9.52357 4.42425 0.463434 
-9.6813 4.90616 0.996511 -9.99521 5.24897 1.55363 -10.3436 5.41098 2.19296 
-22.1371 -16.0957 -4.08583 -21.5796 -15.6923 -4.13578 -20.9697 -15.0385 -4.15343 
-20.2303 -14.1077 -4.10371 -19.2996 -12.8884 -3.93916 -18.2241 -11.433 -3.60882 
-16.9726 -9.94812 -3.19195 -15.4693 -8.73807 -2.89763 -13.8395 -7.97742 -2.81955 
-22.8268 -15.2635 -3.81082 -22.9106 -14.111 -3.51595 -22.8992 -12.8368 -3.17367 
-22.8183 -11.4759 -2.83253 -22.6193 -10.1415 -2.43852 -22.2549 -8.89837 -1.94845 
-21.7916 -7.69133 -1.46104 -21.3382 -6.53581 -1.03343 -20.9312 -5.54343 -0.616105 
-22.5767 -18.1013 -4.21935 -22.345 -20.141 -4.40763 -21.9105 -22.3007 -4.64512 
-21.2507 -24.3417 -4.92024 -20.3918 -26.1052 -5.11131 -19.4178 -27.5492 -5.21072 
-18.4461 -28.6025 -5.24676 -17.677 -29.1808 -5.0371 -17.2897 -29.2667 -4.46815 
-23.0671 -17.4584 -4.0643 -23.4411 -18.633 -4.05337 -23.7721 -19.8242 -3.98396 
-24.1273 -20.9028 -3.88093 -24.4728 -21.7115 -3.72685 -24.7273 -22.2636 -3.47573 
-24.9597 -22.6306 -3.11744 -25.2589 -22.8099 -2.67044 -25.5487 -22.7808 -2.1713 
-9.66957 -3.33129 4.22959 -10.7669 -4.19228 4.17225 -12.1415 -5.13404 4.00349 
-13.8321 -6.17548 3.66576 -15.6468 -7.46111 3.2246 -17.4087 -9.05288 2.67105 
-19.0243 -10.8905 1.94848 -20.2819 -12.9402 1.2659 -21.0428 -15.0824 0.85371 
-8.6468 -3.12788 3.94266 -8.5618 -3.77817 3.62745 -8.55186 -4.46661 3.2634 
-8.68383 -5.14843 2.86094 -8.98487 -5.87364 2.45435 -9.47012 -6.5955 2.02651 
-10.1132 -7.19893 1.58751 -10.852 -7.71809 1.19354 -11.6576 -8.23658 0.852009 
-9.38961 -2.55886 4.55172 -10.2416 -2.60403 4.80382 -11.4334 -2.6881 4.88561 
-12.8865 -2.85922 4.85946 -14.4162 -3.20969 4.8724 -15.9751 -3.72119 4.89163 
-17.4771 -4.2593 4.79803 -18.7251 -4.71414 4.5798 -19.6788 -5.07686 4.27432 
-7.76609 -2.20331 4.02585 -6.71726 -1.81847 3.76778 -5.68398 -1.40921 3.45119 
-4.70646 -1.05268 3.07644 -3.72607 -0.817186 2.67613 -2.78026 -0.69303 2.27297 
-1.97244 -0.652314 1.83822 -1.336 -0.635002 1.31617 -0.928406 -0.596426 0.692604 
-8.24637 -1.7688 4.39207 -7.81128 -0.760659 4.4824 -7.5449 0.465062 4.50863 
-7.54496 1.78864 4.46953 -7.79483 2.99314 4.32511 -8.20479 3.93687 4.11977 
-8.75062 4.64062 3.94091 -9.41417 5.14532 3.71397 -10.0758 5.3985 3.33256 
-20.9466 -16.5477 0.629051 -20.4331 -15.8114 0.605322 -19.9027 -14.9185 0.535583 
-19.2426 -13.9 0.497595 -18.3016 -12.8147 0.632862 -17.1726 -11.7485 0.834603 
-16.0597 -10.7435 0.882648 -14.9452 -9.86294 0.795368 -13.7392 -9.20048 0.678098 
-21.6711 -16.3017 0.829215 -21.848 -15.3134 1.08624 -21.9541 -14.1343 1.38691 
-22.0004 -12.8385 1.68724 -21.9217 -11.4827 2.0466 -21.6451 -10.0829 2.47993 
-21.2515 -8.71238 2.88329 -20.9058 -7.46797 3.23932 -20.6618 -6.37387 3.59647 
-21.3248 -18.8002 0.470716 -21.0851 -20.7063 0.235846 -20.684 -22.7398 -0.00423327 
-20.1293 -24.5951 -0.232558 -19.517 -26.0357 -0.633622 -18.9308 -27.1505 -1.26245 
-18.35 -28.064 -1.87314 -17.7984 -28.7217 -2.41321 -17.4041 -29.0197 -3.04222 
-21.8158 -18.5509 0.606267 -22.1955 -19.9491 0.553793 -22.6239 -21.2368 0.491856 
-23.1477 -22.3075 0.407313 -23.6971 -23.0079 0.212808 -24.1661 -23.3024 -0.128263 
-24.5989 -23.3014 -0.51563 -25.0601 -23.146 -0.887798 -25.464 -22.9073 -1.27204 
-12.1467 -7.92333 -2.73752 -12.073 -8.17981 -2.48614 -11.9909 -8.38955 -2.19318 
-11.8253 -8.64337 -1.91644 -11.7001 -8.87829 -1.58219 -11.7825 -8.9227 -1.14573 
-11.9879 -8.84879 -0.673564 -12.1613 -8.82284 -0.217981 -12.3167 -8.81739 0.193407 
-14.3543 -8.75347 -2.73888 -16.2447 -10.6515 -2.90903 -17.5869 -13.2943 -3.30297 
-18.3947 -16.3787 -3.56478 -18.7841 -19.5375 -3.56783 -18.7186 -22.3344 -3.58348 
-18.3201 -24.5196 -3.76104 -17.8416 -26.2818 -3.93758 -17.4473 -27.7907 -3.93329 
-10.2084 -7.11254 -3.09803 -8.31752 -6.7262 -3.27338 -6.85005 -6.18515 -3.1807 
-5.63334 -5.43761 -2.80259 -4.46198 -4.60767 -2.32286 -3.41235 -3.77129 -1.90534 
-2.48997 -2.91947 -1.51783 -1.63034 -2.0626 -1.05249 -1.0125 -1.26389 -0.510696 
-14.1723 -9.67303 0.274472 -15.7569 -11.058 -0.102757 -17.0151 -13.0152 -0.588123 
-17.9636 -15.5781 -1.08391 -18.5615 -18.5454 -1.4763 -18.5727 -21.4028 -1.77053 
-18.1661 -23.8198 -2.09746 -17.7655 -25.8827 -2.55778 -17.4662 -27.6296 -3.13137 
-10.7061 -8.16945 0.527193 -8.8643 -7.71236 0.503931 -7.06886 -7.26943 0.54059 
-5.38582 -6.70473 0.605613 -4.01442 -5.92755 0.559578 -3.01063 -4.99832 0.417489 
-2.15025 -3.99121 0.332476 -1.37791 -2.87062 0.300455 -0.900372 -1.68029 0.206796 
-20.8064 -4.65468 0.114825 -21.002 -4.56653 0.488028 -21.1824 -4.43663 0.924206 
-21.3608 -4.27793 1.4428 -21.4152 -4.19258 2.02657 -21.3039 -4.24234 2.60621 
-21.1606 -4.40702 3.13224 -21.0125 -4.67872 3.55138 -20.776 -5.03418 3.80486 
-21.6331 -5.86676 -0.445041 -22.7548 -7.25262 -0.728675 -23.8591 -8.93034 -1.01194 
-24.8772 -10.7063 -1.24244 -25.7001 -12.4601 -1.41629 -26.2184 -14.503 -1.60769 
-26.4031 -17.0187 -1.80444 -26.3246 -19.4905 -1.88072 -26.0795 -21.3355 -1.80477 
-19.6508 -3.58288 0.209483 -18.7048 -2.27591 0.605357 -17.7489 -0.944338 0.995555 
-16.7392 0.234994 1.39527 -15.6598 1.36961 1.75283 -14.6124 2.54468 2.00325 
-13.6215 3.53752 2.1973 -12.6194 4.27516 2.41363 -11.6076 4.88832 2.64534 
-21.3851 -6.43679 3.30267 -22.4267 -7.83209 2.6038 -23.501 -9.61048 1.92434 
-24.5944 -11.6225 1.3744 -25.6293 -13.7392 0.996169 -26.2506 -15.93 0.646554 
-26.3389 -18.0966 0.10778 -26.2032 -20.0039 -0.582802 -26.0148 -21.475 -1.20239 
-19.76 -4.24164 4.3677 -18.9339 -2.91677 4.68208 -17.9124 -1.41507 4.83993 
-16.6881 0.118133 4.86481 -15.4186 1.52179 4.78267 -14.2683 2.7093 4.60355 
-13.2446 3.63889 4.30789 -12.3137 4.35418 3.88367 -11.4505 4.92821 3.37365 
-17.3346 -29.9819 -3.82809 -18.0113 -30.5884 -3.76351 -19.3166 -30.6728 -3.51812 
-20.7351 -30.2153 -3.17783 -21.8454 -29.3229 -2.87695 -22.7751 -28.1828 -2.64892 
-23.6601 -26.812 -2.39715 -24.4576 -25.2632 -2.10035 -25.1578 -23.8081 -1.84958 
-1.07564 0.491532 0.248308 -1.60674 1.61918 0.515994 -2.23354 2.78975 0.814854 
-2.98257 3.89009 1.04885 -3.98096 4.74973 1.2311 -5.19926 5.34102 1.50484 
-6.57374 5.74272 1.89565 -8.02798 5.90942 2.28774 -9.40987 5.76044 2.60504 
-11.2232 -1.20139 -2.37896 -11.0498 -1.83313 -2.68613 -12.4107 -2.22653 -2.45273 
-10.9381 -2.51623 -2.96805 -12.332 -2.89386 -2.71258 -13.8425 -3.40286 -2.44064 
-11.0193 -3.32294 -3.1682 -12.397 -3.66137 -2.92377 -13.9387 -4.17499 -2.62266 
-15.5503 -4.96983 -2.44004 -11.3224 -4.36028 -3.23826 -12.7863 -4.62599 -3.04703 
-14.2881 -5.16084 -2.75287 -15.9732 -6.0178 -2.62521 -17.5553 -7.00903 -2.70105 
-11.7207 -5.44096 -3.17115 -13.3827 -5.70572 -3.06026 -14.9378 -6.30592 -2.86838 
-16.598 -7.29639 -2.81044 -18.2151 -8.39567 -2.9825 -19.5026 -9.31662 -3.19645 
-12.2162 -6.32502 -3.0314 -14.0017 -6.69529 -2.98273 -15.6513 -7.44361 -2.99345 
-17.2462 -8.60763 -3.08751 -18.7827 -9.8924 -3.3026 -20.0109 -10.9385 -3.52543 
-20.8918 -11.6948 -3.62981 -12.9334 -7.11102 -2.90281 -14.6938 -7.65233 -2.90292 
-16.3251 -8.61857 -3.10007 -17.7757 -9.94193 -3.39861 -19.1138 -11.3529 -3.67231 
-20.2264 -12.5422 -3.85535 -21.0445 -13.4008 -3.92106 -21.6836 -13.9978 -3.89924 
-9.16813 0.220716 -2.36478 -7.86158 0.595089 -2.372 -8.79985 -0.399111 -2.63953 
-6.39259 0.815685 -2.30346 -7.39639 -0.138801 -2.61457 -8.45098 -1.12595 -2.89242 
-4.95718 0.917965 -2.21282 -5.92874 -0.0826133 -2.53171 -6.97709 -1.02636 -2.85262 
-8.15142 -1.99014 -3.08033 -3.68765 0.824045 -2.06179 -4.59873 -0.160371 -2.3767 
-5.60922 -1.16622 -2.75579 -6.6904 -2.06644 -3.04089 -8.05422 -3.07708 -3.18338 
-2.62989 0.433068 -1.81201 -3.46294 -0.451273 -2.11686 -4.478 -1.45427 -2.52954 
-5.55278 -2.3743 -2.95043 -6.76735 -3.26445 -3.17566 -8.26072 -4.3132 -3.25414 
-1.83703 -0.122142 -1.47713 -2.57567 -0.971871 -1.81822 -3.53992 -1.91599 -2.19988 
-4.65323 -2.83497 -2.68611 -5.87703 -3.6678 -3.0945 -7.16931 -4.56062 -3.29821 
-8.67899 -5.46305 -3.31564 -1.30491 -0.68588 -1.03486 -1.98548 -1.53369 -1.4828 
-2.87697 -2.44721 -1.87003 -3.89828 -3.34765 -2.29505 -5.10515 -4.18311 -2.77645 
-6.3622 -4.99839 -3.17971 -7.66332 -5.7778 -3.36665 -9.29531 -6.38988 -3.28488 
-1.3128 -2.44957 -0.390024 -1.91424 -3.6936 -0.32621 -2.09892 -3.27785 -0.984136 
-2.63214 -4.88392 -0.237966 -2.69847 -4.5276 -0.896633 -3.03065 -4.10404 -1.46108 
-3.47317 -5.97831 -0.0461607 -3.36765 -5.78946 -0.729204 -3.67198 -5.3408 -1.35626 
-4.03492 -4.93373 -1.86273 -4.72388 -6.86461 0.124058 -4.34669 -6.92645 -0.515991 
-4.46575 -6.64213 -1.23111 -4.79558 -6.18125 -1.83996 -5.13994 -5.81289 -2.34136 
[...]
POINT_DATA 1002
FIELD FieldData 4
_paraPhi 1 1002 double
6.2831853072 3.1415926536 6.2831853072 3.1415926536 4.7123889804 4.7123889804 1.5707963268 1.5707963268 3.6951670125 
5.7296109483 2.5880182947 0.5535743589 6.2831853072 6.2831853072 6.2831853072 6.2831853072 3.1415926536 3.1415926536 
3.1415926536 3.1415926536 3.1415926536 6.1053039672 5.898798347 5.6768734901 5.4599499503 5.2659633393 5.1032165617 
4.9713148346 4.8656852733 4.7809517865 0.17788134 0.38438696014 0.60631181711 0.82323535693 1.0172219679 1.1799687454 
1.3118704726 1.4175000338 1.5022335207 6.1892828907 6.1070320098 6.035312792 5.9728339911 5.9183214791 5.8706119594 
5.8286879411 5.7916808611 5.7588591896 0.093902416448 0.17615329733 0.2478725152 0.31035131605 0.36486382811 0.41257334776 
0.45449736604 0.4915044461 0.52432611754 3.3194739936 3.5259796137 3.7479044707 3.9648280105 4.1588146215 4.321561399 
4.4534631262 4.5590926874 4.6438261743 2.9637113136 2.7572056934 2.5352808365 2.3183572967 2.1243706857 1.9616239082 
1.829722181 1.7240926197 1.6393591329 3.23549507 3.3177459509 3.3894651688 3.4519439696 3.5064564817 3.5541660013 
3.5960900196 3.6330970997 3.6659187711 3.0476902371 2.9654393563 2.8937201384 2.8312413375 2.7767288255 2.7290193058 
2.6870952876 2.6500882075 2.617266536 6.2831853072 6.2831853072 6.2831853072 6.2831853072 3.1415926536 3.1415926536 
3.1415926536 3.1415926536 3.1415926536 6.1053039672 5.898798347 5.6768734901 5.4599499503 5.2659633393 5.1032165617 
4.9713148346 4.8656852733 4.7809517865 0.17788134 0.38438696014 0.60631181711 0.82323535693 1.0172219679 1.1799687454 
1.3118704726 1.4175000338 1.5022335207 6.1892828907 6.1070320098 6.035312792 5.9728339911 5.9183214791 5.8706119594 
5.8286879411 5.7916808611 5.7588591896 0.093902416448 0.17615329733 0.2478725152 0.31035131605 0.36486382811 0.41257334776 
0.45449736604 0.4915044461 0.52432611754 3.3194739936 3.5259796137 3.7479044707 3.9648280105 4.1588146215 4.321561399 
4.4534631262 4.5590926874 4.6438261743 2.9637113136 2.7572056934 2.5352808365 2.3183572967 2.1243706857 1.9616239082 
1.829722181 1.7240926197 1.6393591329 3.23549507 3.3177459509 3.3894651688 3.4519439696 3.5064564817 3.5541660013 
3.5960900196 3.6330970997 3.6659187711 3.0476902371 2.9654393563 2.8937201384 2.8312413375 2.7767288255 2.7290193058 
2.6870952876 2.6500882075 2.617266536 4.7123889804 4.7123889804 4.7123889804 4.7123889804 4.7123889804 4.7123889804 
4.7123889804 4.7123889804 4.7123889804 4.6087898617 4.4991390697 4.3857031936 4.2712800401 4.1588146215 4.0509635631 
3.94975894 3.8564636551 3.7716124825 4.8159880991 4.9256388911 5.0390747672 5.1534979207 5.2659633393 5.3738143976 
5.4750190208 5.5683143056 5.6531654782 4.6087898617 4.4991390697 4.3857031936 4.2712800401 4.1588146215 4.0509635631 
3.94975894 3.8564636551 3.7716124825 4.8159880991 4.9256388911 5.0390747672 5.1534979207 5.2659633393 5.3738143976 
5.4750190208 5.5683143056 5.6531654782 1.5707963268 1.5707963268 1.5707963268 1.5707963268 1.5707963268 1.5707963268 
1.5707963268 1.5707963268 1.5707963268 1.6743954455 1.7840462375 1.8974821136 2.0119052671 2.1243706857 2.232221744 
2.3334263672 2.426721652 2.5115728246 1.4671972081 1.3575464161 1.24411054 1.1296873865 1.0172219679 0.90937090954 
0.80816628637 0.71487100155 0.63001982895 1.6743954455 1.7840462375 1.8974821136 2.0119052671 2.1243706857 2.232221744 
2.3334263672 2.426721652 2.5115728246 1.4671972081 1.3575464161 1.24411054 1.1296873865 1.0172219679 0.90937090954 
0.80816628637 0.71487100155 0.63001982895 3.6007720849 3.4966939854 3.3839471039 3.2645756454 3.1415926536 3.0186096618 
2.8992382033 2.7864913217 2.6824132222 5.8240058758 5.9280839753 6.0408308569 6.1602023154 6.2831853072 0.12298299178 
0.2423544503 0.35510133185 0.45917943135 6.0560271438 5.7885595667 5.9702140275 5.5125918794 5.6029703303 5.7885595667 
5.2659633393 5.2659633393 5.2659633393 5.2659633393 5.0674903122 5.0120975802 4.9155579264 4.7123889804 4.1588146215 
4.9155579264 4.8353719722 4.7123889804 4.5092200343 4.1588146215 3.6362183941 4.8004512023 4.7123889804 4.5894059886 
4.4126803806 4.1588146215 3.8218076305 3.4545639333 4.7123889804 4.6243267584 4.5092200343 4.3572876485 4.1588146215 
3.9121860814 3.6362183941 3.368750817 6.0174235957 5.9434319871 5.8263323547 5.8809213739 5.7674481418 5.6279784266 
5.8278025282 5.718968232 5.5891129425 5.4372443565 5.7823484065 5.678536687 5.5575666702 5.4192596322 5.2659633393 
5.743164462 5.6444075337 5.5314983644 5.4046708639 5.2659633393 5.1195510325 5.7091357773 5.6152775188 5.5096229709 
5.3926039573 5.2659633393 5.1329233157 4.9978930058 5.6793730533 5.5901633916 5.4910209005 5.3824597928 5.2659633393 
5.1440684722 5.0201624502 4.8979782167 5.5683143056 5.4750190208 5.4750190208 5.3738143976 5.3738143976 5.3738143976 
5.2659633393 5.2659633393 5.2659633393 5.2659633393 5.1534979207 5.1534979207 5.1534979207 5.1534979207 5.1534979207 
5.0390747672 5.0390747672 5.0390747672 5.0390747672 5.0390747672 5.0390747672 4.9256388911 4.9256388911 4.9256388911 
4.9256388911 4.9256388911 4.9256388911 4.9256388911 4.8159880991 4.8159880991 4.8159880991 4.8159880991 4.8159880991 
4.8159880991 4.8159880991 4.8159880991 4.6087898617 4.6087898617 4.4991390697 4.6087898617 4.4991390697 4.3857031936 
4.6087898617 4.4991390697 4.3857031936 4.2712800401 4.6087898617 4.4991390697 4.3857031936 4.2712800401 4.1588146215 
4.6087898617 4.4991390697 4.3857031936 4.2712800401 4.1588146215 4.0509635631 4.6087898617 4.4991390697 4.3857031936 
4.2712800401 4.1588146215 4.0509635631 3.94975894 4.6087898617 4.4991390697 4.3857031936 4.2712800401 4.1588146215 
4.0509635631 3.94975894 3.8564636551 4.526799744 4.4046155105 4.426884955 4.2807094886 4.2918546451 4.3052269283 
4.1588146215 4.1588146215 4.1588146215 4.1588146215 4.042318168 4.0321740035 4.0201070968 4.0055183285 3.9875336042 
3.9337570603 3.9151549899 3.8932795963 3.8672112905 3.8356650183 3.7967995342 3.8346145692 3.809500442 3.7803704271 
3.7462412737 3.7058097288 3.657329819 3.5984456061 3.7454049075 3.7156421835 3.6816134988 3.6424295543 3.5969754326 
3.5438565869 3.4813459737 3.4073543651 3.5642842451 3.4524645613 3.5233842518 3.3320300872 3.403123212 3.4773852225 
3.20576226 3.2746326772 3.348015857 3.4255060145 3.0774230472 3.1415926536 3.2112816139 3.2864685043 3.3668817272 
2.95115522 3.00855263 3.0719036933 3.1415926536 3.2178377658 3.3005964304 2.8307207459 2.8800620952 2.9351694502 
2.9967168029 3.0653475414 3.1415926536 3.225752376 2.718901062 2.7598010554 2.8058000847 2.8576792927 2.91630358 
2.9825888767 3.0574329311 3.1415926536 3.5642842451 3.5233842518 3.4524645613 3.4773852225 3.403123212 3.3320300872 
3.4255060145 3.348015857 3.2746326772 3.20576226 3.3668817272 3.2864685043 3.2112816139 3.1415926536 3.0774230472 
3.3005964304 3.2178377658 3.1415926536 3.0719036933 3.00855263 2.95115522 3.225752376 3.1415926536 3.0653475414 
2.9967168029 2.9351694502 2.8800620952 2.8307207459 3.1415926536 3.0574329311 2.9825888767 2.91630358 2.8576792927 
2.8058000847 2.7598010554 2.718901062 4.526799744 4.426884955 4.4046155105 4.3052269283 4.2918546451 4.2807094886 
4.1588146215 4.1588146215 4.1588146215 4.1588146215 3.9875336042 4.0055183285 4.0201070968 4.0321740035 4.042318168 
3.7967995342 3.8356650183 3.8672112905 3.8932795963 3.9151549899 3.9337570603 3.5984456061 3.657329819 3.7058097288 
3.7462412737 3.7803704271 3.809500442 3.8346145692 3.4073543651 3.4813459737 3.5438565869 3.5969754326 3.6424295543 
3.6816134988 3.7156421835 3.7454049075 4.7123889804 4.8004512023 4.6243267584 4.9155579264 4.7123889804 4.5092200343 
5.0674903122 4.8353719722 4.5894059886 4.3572876485 5.2659633393 5.0120975802 4.7123889804 4.4126803806 4.1588146215 
5.5125918794 5.2659633393 4.9155579264 4.5092200343 4.1588146215 3.9121860814 5.7885595667 5.6029703303 5.2659633393 
4.7123889804 4.1588146215 3.8218076305 3.6362183941 6.0560271438 5.9702140275 5.7885595667 5.2659633393 4.1588146215 
3.6362183941 3.4545639333 3.368750817 0.22715816343 0.49462574053 0.3129712797 0.77059342779 0.68021497688 0.49462574053 
1.0172219679 1.0172219679 1.0172219679 1.0172219679 1.2156949949 1.271087727 1.3676273807 1.5707963268 2.1243706857 
1.3676273807 1.447813335 1.5707963268 1.7739652728 2.1243706857 2.6469669131 1.4827341049 1.5707963268 1.6937793186 
1.8705049266 2.1243706857 2.4613776767 2.8286213739 1.5707963268 1.6588585487 1.7739652728 1.9258976586 2.1243706857 
2.3709992258 2.6469669131 2.9144344902 1.7563855631 1.8785697967 1.8563003522 2.0024758186 1.9913306621 1.9779583789 
2.1243706857 2.1243706857 2.1243706857 2.1243706857 2.2408671392 2.2510113037 2.2630782103 2.2776669786 2.295651703 
2.3494282469 2.3680303173 2.3899057108 2.4159740166 2.4475202889 2.486385773 2.448570738 2.4736848652 2.5028148801 
2.5369440334 2.5773755784 2.6258554882 2.6847397011 2.5377803997 2.5675431237 2.6015718084 2.6407557529 2.6862098746 
2.7393287203 2.8018393335 2.8758309421 1.6743954455 1.6743954455 1.7840462375 1.6743954455 1.7840462375 1.8974821136 
1.6743954455 1.7840462375 1.8974821136 2.0119052671 1.6743954455 1.7840462375 1.8974821136 2.0119052671 2.1243706857 
1.6743954455 1.7840462375 1.8974821136 2.0119052671 2.1243706857 2.232221744 1.6743954455 1.7840462375 1.8974821136 
2.0119052671 2.1243706857 2.232221744 2.3334263672 1.6743954455 1.7840462375 1.8974821136 2.0119052671 2.1243706857 
2.232221744 2.3334263672 2.426721652 1.4671972081 1.3575464161 1.4671972081 1.24411054 1.3575464161 1.4671972081 
1.1296873865 1.24411054 1.3575464161 1.4671972081 1.0172219679 1.1296873865 1.24411054 1.3575464161 1.4671972081 
0.90937090954 1.0172219679 1.1296873865 1.24411054 1.3575464161 1.4671972081 0.80816628637 0.90937090954 1.0172219679 
1.1296873865 1.24411054 1.3575464161 1.4671972081 0.71487100155 0.80816628637 0.90937090954 1.0172219679 1.1296873865 
1.24411054 1.3575464161 1.4671972081 0.60381225391 0.57404952988 0.69302191562 0.54002084522 0.66790778838 0.79216440667 
0.50083690068 0.63877777351 0.77356233629 0.90072551443 0.45538277901 0.60464862014 0.75168694275 0.89058134991 1.0172219679 
0.40226393329 0.56421707518 0.72561863695 0.87851444325 1.0172219679 1.139116835 0.33975332011 0.51573716537 0.69407236469 
0.86392567495 1.0172219679 1.1502619915 1.2630228569 0.26576171152 0.45685295248 0.6552068806 0.84594095064 1.0172219679 
1.1636342747 1.2852923014 1.3852070904 0.22715816343 0.3129712797 0.49462574053 0.49462574053 0.68021497688 0.77059342779 
1.0172219679 1.0172219679 1.0172219679 1.0172219679 2.1243706857 1.5707963268 1.3676273807 1.271087727 1.2156949949 
2.6469669131 2.1243706857 1.7739652728 1.5707963268 1.447813335 1.3676273807 2.8286213739 2.4613776767 2.1243706857 
1.8705049266 1.6937793186 1.5707963268 1.4827341049 2.9144344902 2.6469669131 2.3709992258 2.1243706857 1.9258976586 
1.7739652728 1.6588585487 1.5707963268 1.7563855631 1.8563003522 1.8785697967 1.9779583789 1.9913306621 2.0024758186 
2.1243706857 2.1243706857 2.1243706857 2.1243706857 2.295651703 2.2776669786 2.2630782103 2.2510113037 2.2408671392 
2.486385773 2.4475202889 2.4159740166 2.3899057108 2.3680303173 2.3494282469 2.6847397011 2.6258554882 2.5773755784 
2.5369440334 2.5028148801 2.4736848652 2.448570738 2.8758309421 2.8018393335 2.7393287203 2.6862098746 2.6407557529 
2.6015718084 2.5675431237 2.5377803997 5.8604937156 5.901393709 5.9723133995 5.9473927383 6.0216547488 6.0927478736 
5.9992719463 6.0767621038 6.1501452836 6.2190157008 6.0578962336 6.1383094565 6.2134963469 0 0.064169606361 
6.1241815303 6.206940195 6.2831853072 0.069688960264 0.13304002361 0.19043743361 6.1990255847 0 0.07624511221 
0.14487585072 0.20642320337 0.26153055843 0.3108719077 0 0.084159722458 0.15900377685 0.22528907359 0.28391336087 
0.3357925689 0.38179159818 0.42269159155 5.8604937156 5.9723133995 5.901393709 6.0927478736 6.0216547488 5.9473927383 
6.2190157008 6.1501452836 6.0767621038 5.9992719463 0.064169606361 0 6.2134963469 6.1383094565 6.0578962336 
0.19043743361 0.13304002361 0.069688960264 6.2831853072 6.206940195 6.1241815303 0.3108719077 0.26153055843 0.20642320337 
0.14487585072 0.07624511221 6.2831853072 6.1990255847 0.42269159155 0.38179159818 0.3357925689 0.28391336087 0.22528907359 
0.15900377685 0.084159722458 0 5.6793730533 5.7091357773 5.5901633916 5.743164462 5.6152775188 5.4910209005 
5.7823484065 5.6444075337 5.5096229709 5.3824597928 5.8278025282 5.678536687 5.5314983644 5.3926039573 5.2659633393 
5.8809213739 5.718968232 5.5575666702 5.4046708639 5.2659633393 5.1440684722 5.9434319871 5.7674481418 5.5891129425 
5.4192596322 5.2659633393 5.1329233157 5.0201624502 6.0174235957 5.8263323547 5.6279784266 5.4372443565 5.2659633393 
5.1195510325 4.9978930058 4.8979782167 1.3852070904 1.2852923014 1.2630228569 1.1636342747 1.1502619915 1.139116835 
1.0172219679 1.0172219679 1.0172219679 1.0172219679 0.84594095064 0.86392567495 0.87851444325 0.89058134991 0.90072551443 
0.6552068806 0.69407236469 0.72561863695 0.75168694275 0.77356233629 0.79216440667 0.45685295248 0.51573716537 0.56421707518 
0.60464862014 0.63877777351 0.66790778838 0.69302191562 0.26576171152 0.33975332011 0.40226393329 0.45538277901 0.50083690068 
0.54002084522 0.57404952988 0.60381225391 
_paraPhiHalf 1 1002 double
0 3.1415926536 0 3.1415926536 1.5707963268 1.5707963268 1.5707963268 1.5707963268 2.5880182947 
0.5535743589 2.5880182947 0.5535743589 0 0 0 0 3.1415926536 3.1415926536 
3.1415926536 3.1415926536 3.1415926536 0.17788134 0.38438696014 0.60631181711 0.82323535693 1.0172219679 1.1799687454 
1.3118704726 1.4175000338 1.5022335207 0.17788134 0.38438696014 0.60631181711 0.82323535693 1.0172219679 1.1799687454 
1.3118704726 1.4175000338 1.5022335207 0.093902416448 0.17615329733 0.2478725152 0.31035131605 0.36486382811 0.41257334776 
0.45449736604 0.4915044461 0.52432611754 0.093902416448 0.17615329733 0.2478725152 0.31035131605 0.36486382811 0.41257334776 
0.45449736604 0.4915044461 0.52432611754 2.9637113136 2.7572056934 2.5352808365 2.3183572967 2.1243706857 1.9616239082 
1.829722181 1.7240926197 1.6393591329 2.9637113136 2.7572056934 2.5352808365 2.3183572967 2.1243706857 1.9616239082 
1.829722181 1.7240926197 1.6393591329 3.0476902371 2.9654393563 2.8937201384 2.8312413375 2.7767288255 2.7290193058 
2.6870952876 2.6500882075 2.617266536 3.0476902371 2.9654393563 2.8937201384 2.8312413375 2.7767288255 2.7290193058 
2.6870952876 2.6500882075 2.617266536 0 0 0 0 3.1415926536 3.1415926536 
3.1415926536 3.1415926536 3.1415926536 0.17788134 0.38438696014 0.60631181711 0.82323535693 1.0172219679 1.1799687454 
1.3118704726 1.4175000338 1.5022335207 0.17788134 0.38438696014 0.60631181711 0.82323535693 1.0172219679 1.1799687454 
1.3118704726 1.4175000338 1.5022335207 0.093902416448 0.17615329733 0.2478725152 0.31035131605 0.36486382811 0.41257334776 
0.45449736604 0.4915044461 0.52432611754 0.093902416448 0.17615329733 0.2478725152 0.31035131605 0.36486382811 0.41257334776 
0.45449736604 0.4915044461 0.52432611754 2.9637113136 2.7572056934 2.5352808365 2.3183572967 2.1243706857 1.9616239082 
1.829722181 1.7240926197 1.6393591329 2.9637113136 2.7572056934 2.5352808365 2.3183572967 2.1243706857 1.9616239082 
1.829722181 1.7240926197 1.6393591329 3.0476902371 2.9654393563 2.8937201384 2.8312413375 2.7767288255 2.7290193058 
2.6870952876 2.6500882075 2.617266536 3.0476902371 2.9654393563 2.8937201384 2.8312413375 2.7767288255 2.7290193058 
2.6870952876 2.6500882075 2.617266536 1.5707963268 1.5707963268 1.5707963268 1.5707963268 1.5707963268 1.5707963268 
1.5707963268 1.5707963268 1.5707963268 1.6743954455 1.7840462375 1.8974821136 2.0119052671 2.1243706857 2.232221744 
2.3334263672 2.426721652 2.5115728246 1.4671972081 1.3575464161 1.24411054 1.1296873865 1.0172219679 0.90937090954 
0.80816628637 0.71487100155 0.63001982895 1.6743954455 1.7840462375 1.8974821136 2.0119052671 2.1243706857 2.232221744 
2.3334263672 2.426721652 2.5115728246 1.4671972081 1.3575464161 1.24411054 1.1296873865 1.0172219679 0.90937090954 
0.80816628637 0.71487100155 0.63001982895 1.5707963268 1.5707963268 1.5707963268 1.5707963268 1.5707963268 1.5707963268 
1.5707963268 1.5707963268 1.5707963268 1.6743954455 1.7840462375 1.8974821136 2.0119052671 2.1243706857 2.232221744 
2.3334263672 2.426721652 2.5115728246 1.4671972081 1.3575464161 1.24411054 1.1296873865 1.0172219679 0.90937090954 
0.80816628637 0.71487100155 0.63001982895 1.6743954455 1.7840462375 1.8974821136 2.0119052671 2.1243706857 2.232221744 
2.3334263672 2.426721652 2.5115728246 1.4671972081 1.3575464161 1.24411054 1.1296873865 1.0172219679 0.90937090954 
0.80816628637 0.71487100155 0.63001982895 2.6824132222 2.7864913217 2.8992382033 3.0186096618 3.1415926536 3.0186096618 
2.8992382033 2.7864913217 2.6824132222 0.45917943135 0.35510133185 0.2423544503 0.12298299178 0 0.12298299178 
0.2423544503 0.35510133185 0.45917943135 0.22715816343 0.49462574053 0.3129712797 0.77059342779 0.68021497688 0.49462574053 
1.0172219679 1.0172219679 1.0172219679 1.0172219679 1.2156949949 1.271087727 1.3676273807 1.5707963268 2.1243706857 
1.3676273807 1.447813335 1.5707963268 1.7739652728 2.1243706857 2.6469669131 1.4827341049 1.5707963268 1.6937793186 
1.8705049266 2.1243706857 2.4613776767 2.8286213739 1.5707963268 1.6588585487 1.7739652728 1.9258976586 2.1243706857 
2.3709992258 2.6469669131 2.9144344902 0.26576171152 0.33975332011 0.45685295248 0.40226393329 0.51573716537 0.6552068806 
0.45538277901 0.56421707518 0.69407236469 0.84594095064 0.50083690068 0.60464862014 0.72561863695 0.86392567495 1.0172219679 
0.54002084522 0.63877777351 0.75168694275 0.87851444325 1.0172219679 1.1636342747 0.57404952988 0.66790778838 0.77356233629 
0.89058134991 1.0172219679 1.1502619915 1.2852923014 0.60381225391 0.69302191562 0.79216440667 0.90072551443 1.0172219679 
1.139116835 1.2630228569 1.3852070904 0.71487100155 0.80816628637 0.80816628637 0.90937090954 0.90937090954 0.90937090954 
1.0172219679 1.0172219679 1.0172219679 1.0172219679 1.1296873865 1.1296873865 1.1296873865 1.1296873865 1.1296873865 
1.24411054 1.24411054 1.24411054 1.24411054 1.24411054 1.24411054 1.3575464161 1.3575464161 1.3575464161 
1.3575464161 1.3575464161 1.3575464161 1.3575464161 1.4671972081 1.4671972081 1.4671972081 1.4671972081 1.4671972081 
1.4671972081 1.4671972081 1.4671972081 1.6743954455 1.6743954455 1.7840462375 1.6743954455 1.7840462375 1.8974821136 
1.6743954455 1.7840462375 1.8974821136 2.0119052671 1.6743954455 1.7840462375 1.8974821136 2.0119052671 2.1243706857 
1.6743954455 1.7840462375 1.8974821136 2.0119052671 2.1243706857 2.232221744 1.6743954455 1.7840462375 1.8974821136 
2.0119052671 2.1243706857 2.232221744 2.3334263672 1.6743954455 1.7840462375 1.8974821136 2.0119052671 2.1243706857 
2.232221744 2.3334263672 2.426721652 1.7563855631 1.8785697967 1.8563003522 2.0024758186 1.9913306621 1.9779583789 
2.1243706857 2.1243706857 2.1243706857 2.1243706857 2.2408671392 2.2510113037 2.2630782103 2.2776669786 2.295651703 
2.3494282469 2.3680303173 2.3899057108 2.4159740166 2.4475202889 2.486385773 2.448570738 2.4736848652 2.5028148801 
2.5369440334 2.5773755784 2.6258554882 2.6847397011 2.5377803997 2.5675431237 2.6015718084 2.6407557529 2.6862098746 
2.7393287203 2.8018393335 2.8758309421 2.718901062 2.8307207459 2.7598010554 2.95115522 2.8800620952 2.8058000847 
3.0774230472 3.00855263 2.9351694502 2.8576792927 3.0774230472 3.1415926536 3.0719036933 2.9967168029 2.91630358 
2.95115522 3.00855263 3.0719036933 3.1415926536 3.0653475414 2.9825888767 2.8307207459 2.8800620952 2.9351694502 
2.9967168029 3.0653475414 3.1415926536 3.0574329311 2.718901062 2.7598010554 2.8058000847 2.8576792927 2.91630358 
2.9825888767 3.0574329311 3.1415926536 2.718901062 2.7598010554 2.8307207459 2.8058000847 2.8800620952 2.95115522 
2.8576792927 2.9351694502 3.00855263 3.0774230472 2.91630358 2.9967168029 3.0719036933 3.1415926536 3.0774230472 
2.9825888767 3.0653475414 3.1415926536 3.0719036933 3.00855263 2.95115522 3.0574329311 3.1415926536 3.0653475414 