# vtk DataFile Version 5.1
vtk output
ASCII
DATASET POLYDATA
POINTS 100 float
-3.08586 4.52703 1.14992 -3.09317 4.52184 1.14735 -3.11583 4.50435 1.14332 
-3.15324 4.47437 1.13789 -3.20456 4.43173 1.13117 -3.26897 4.37622 1.12336 
-3.34593 4.30774 1.1148 -3.43534 4.22626 1.10599 -3.53767 4.13196 1.09759 
-3.65385 4.02518 1.09036 -3.78508 3.90646 1.08508 -3.93254 3.77656 1.08245 
-4.09705 3.63636 1.08299 -4.27878 3.48685 1.08693 -4.47712 3.32902 1.09417 
-4.69061 3.16384 1.10425 -4.91715 2.99215 1.11638 -5.15425 2.81462 1.12959 
-5.39949 2.6317 1.14277 -5.65084 2.44368 1.15485 -5.90702 2.25066 1.16493 
-6.16764 2.05264 1.17232 -6.43323 1.84961 1.17663 -6.70501 1.6416 1.17772 
-6.9846 1.42874 1.17564 -7.27361 1.21137 1.17058 -7.57329 0.989952 1.16273 
-7.88421 0.765146 1.15223 -8.2062 0.53769 1.13911 -8.53836 0.308349 1.1233 
-8.87932 0.0778252 1.10463 -9.22757 -0.153316 1.08296 -9.58181 -0.384701 1.05823 
-9.9413 -0.61617 1.03057 -10.3061 -0.847757 1.00034 -10.6769 -1.07965 0.968216 
-11.0554 -1.31212 0.935081 -11.4433 -1.54548 0.902002 -11.8426 -1.78 0.870099 
-12.255 -2.01597 0.840401 -12.6814 -2.25367 0.81371 -13.1221 -2.49352 0.790469 
-13.5768 -2.73613 0.770681 -14.0445 -2.98255 0.753864 -14.5238 -3.23426 0.739062 
-15.0132 -3.49335 0.724908 -15.5115 -3.76248 0.709719 -16.0175 -4.0448 0.691641 
-16.5304 -4.34376 0.668792 -17.0492 -4.66286 0.63943 -17.5728 -5.00536 0.602114 
-18.0997 -5.37389 0.555851 -18.6276 -5.7702 0.500223 -19.1533 -6.19493 0.435483 
-19.6733 -6.64749 0.362606 -20.1834 -7.12607 0.283283 -20.6797 -7.62782 0.199852 
-21.159 -8.1491 0.115152 -21.6189 -8.68584 0.0323149 -22.0586 -9.23396 -0.0455059 
-22.4786 -9.7897 -0.115441 -22.8808 -10.3499 -0.175212 -23.2678 -10.9124 -0.223398 
-23.6428 -11.4759 -0.259628 -24.0083 -12.0398 -0.28466 -24.3659 -12.6045 -0.30032 
-24.7161 -13.1707 -0.309316 -25.0574 -13.7395 -0.314915 -25.3872 -14.3117 -0.320561 
-25.702 -14.8882 -0.329447 -25.9978 -15.4691 -0.344141 -26.2712 -16.0544 -0.366295 
-26.5195 -16.6435 -0.396506 -26.7418 -17.2355 -0.434334 -26.9387 -17.8294 -0.478489 
-27.1124 -18.4239 -0.527138 -27.2662 -19.0178 -0.578288 -27.404 -19.6101 -0.630176 
-27.5295 -20.1997 -0.681578 -27.6459 -20.7855 -0.732 -27.7554 -21.366 -0.781706 
-27.8593 -21.9398 -0.831569 -27.958 -22.5048 -0.882793 -28.0513 -23.0584 -0.936549 
-28.1395 -23.5975 -0.993599 -28.223 -24.1187 -1.05399 -28.3035 -24.6179 -1.11687 
-28.3833 -25.0911 -1.18052 -28.4656 -25.5345 -1.2425 -28.5535 -25.9444 -1.30003 
-28.6497 -26.3177 -1.35038 -28.7554 -26.6521 -1.39135 -28.87 -26.9462 -1.42164 
-28.9904 -27.199 -1.44107 -29.1114 -27.4107 -1.45064 -29.226 -27.5818 -1.45236 
-29.3264 -27.7132 -1.44889 -29.4046 -27.8059 -1.44307 -29.4541 -27.8608 -1.43743 
-29.4705 -27.8786 -1.43373 
LINES 2 100
OFFSETS vtktypeint64
0 100 
CONNECTIVITY vtktypeint64
0 1 2 3 4 5 6 7 8 
9 10 11 12 13 14 15 16 17 
18 19 20 21 22 23 24 25 26 
27 28 29 30 31 32 33 34 35 
36 37 38 39 40 41 42 43 44 
45 46 47 48 49 50 51 52 53 
54 55 56 57 58 59 60 61 62 
63 64 65 66 67 68 69 70 71 
72 73 74 75 76 77 78 79 80 
81 82 83 84 85 86 87 88 89 
90 91 92 93 94 95 96 97 98 
99 
POINT_DATA 100
FIELD FieldData 3
_theta 1 100 double
0 0.031733259127 0.063466518254 0.095199777382 0.12693303651 0.15866629564 0.19039955476 0.22213281389 0.25386607302 
0.28559933214 0.31733259127 0.3490658504 0.38079910953 0.41253236865 0.44426562778 0.47599888691 0.50773214603 0.53946540516 
0.57119866429 0.60293192342 0.63466518254 0.66639844167 0.6981317008 0.72986495992 0.76159821905 0.79333147818 0.82506473731 
0.85679799643 0.88853125556 0.92026451469 0.95199777382 0.98373103294 1.0154642921 1.0471975512 1.0789308103 1.1106640695 
1.1423973286 1.1741305877 1.2058638468 1.237597106 1.2693303651 1.3010636242 1.3327968833 1.3645301425 1.3962634016 
1.4279966607 1.4597299198 1.491463179 1.5231964381 1.5549296972 1.5866629564 1.6183962155 1.6501294746 1.6818627337 
1.7135959929 1.745329252 1.7770625111 1.8087957702 1.8405290294 1.8722622885 1.9039955476 1.9357288068 1.9674620659 
1.999195325 2.0309285841 2.0626618433 2.0943951024 2.1261283615 2.1578616206 2.1895948798 2.2213281389 2.253061398 
2.2847946572 2.3165279163 2.3482611754 2.3799944345 2.4117276937 2.4434609528 2.4751942119 2.506927471 2.5386607302 
2.5703939893 2.6021272484 2.6338605076 2.6655937667 2.6973270258 2.7290602849 2.7607935441 2.7925268032 2.8242600623 
2.8559933214 2.8877265806 2.9194598397 2.9511930988 2.982926358 3.0146596171 3.0463928762 3.0781261353 3.1098593945 
3.1415926536 
_radius 1 100 double
7.7046598314e-15 0.28055417682 0.5607084405 0.84007842613 1.1182535515 1.3947387485 1.6688746936 1.939762525 2.2062247318 
2.4668258017 2.7199570033 2.963967748 3.1973116811 3.4186752527 3.6270678112 3.8218666041 4.0028194038 4.170010285 
4.3237949217 4.4647154686 4.5934114316 4.7105465602 4.8167673465 4.9126960374 4.998946151 5.0761392028 5.1449021653 
5.205834842 5.2594494122 5.3060948233 5.3458828854 5.3786312043 5.403833891 5.4206678604 5.4280410252 5.4246857204 
5.4092928099 5.3806697724 5.3378957896 5.2804461546 5.208270099 5.1218249872 5.0220845402 4.9105393971 4.7891934976 
4.6605390606 4.5274820956 4.3932010209 4.2609508583 4.1338571398 4.0147544611 3.9061029356 3.8099704095 3.7280225534 
3.6614430877 3.6107383194 3.5754780656 3.5541416042 3.5442466051 3.5427788336 3.5467494896 3.5536615609 3.5617598293 
3.5700560548 3.5781958792 3.5862613465 3.5945873059 3.6036176563 3.6137658871 3.6252244042 3.6377240286 3.6503414411 
3.661482593 3.6690797807 3.6709155031 3.6649429029 3.649513 3.6234748306 3.5861516056 3.5372242087 3.476580885 
3.4042022089 3.3201223509 3.2244492825 3.1173788845 2.9991397621 2.8698563337 2.7293799952 2.5771723449 2.4123133253 
2.2336566879 2.0400927053 1.8308407925 1.6056980157 1.3651956027 1.1106430651 0.8440649791 0.56806004084 0.28562722357 
5.38251762e-14 
_area 1 100 double
0 0.22690653872 0.90353407665 2.0180403845 3.5520344031 5.4822037212 7.7817602139 10.421013284 13.366743111 
16.580826744 20.019283476 23.632931146 27.370020985 31.180100482 35.017771278 38.845286778 42.633593169 46.36177027 
50.014810876 53.579844049 57.04159395 60.378641579 63.562154185 66.557884293 69.330904132 71.851508927 74.100440711 
76.072003429 77.774424158 79.227544332 80.458219144 81.493587203 82.352216771 83.034025216 83.511985478 83.730356455 
83.613200204 83.082777645 82.082158461 80.593210233 78.642281593 76.291389921 73.619996409 70.707301975 67.6240309 
64.435954144 61.213236566 58.035575335 54.985602552 52.13179208 49.513446662 47.141844179 45.016330197 43.141731504 
41.537573713 40.236202984 39.266506314 38.62780045 38.274738556 38.127683537 38.099797619 38.123259812 38.163068536 
38.215541184 38.295258096 38.418327717 38.59060856 38.805057754 39.044861788 39.285777961 39.49535202 39.633074194 
39.656986552 39.536260921 39.261864441 38.847433989 38.319026414 37.6985915 36.988837577 36.166813476 35.190085545 
34.013272315 32.606680845 30.967242698 29.116633199 27.089489573 24.920390543 22.637207059 20.262122229 17.816604951 
15.326507166 12.826062963 10.361189827 7.9917082445 5.7907053962 3.8397464929 2.2207316455 1.0067986138 0.25470997629 
2.1316282073e-14 
