# vtk DataFile Version 5.1
vtk output
ASCII
DATASET POLYDATA
POINTS 1002 float
-10.3129 1.02795 -2.18394 -25.1756 -14.5316 -5.11159 -9.31518 -2.28351 4.01677 
-23.9902 -15.2124 -0.338654 -13.5419 -6.42364 -3.49686 -13.8969 -7.69055 0.00357184 
-21.3449 -2.73595 -0.770633 -21.9987 -3.74042 3.06597 -22.1723 -27.7675 -5.00861 
-0.966075 -1.67264 0.241721 -29.8291 -20.4903 -3.28072 -9.54865 5.88759 3.17161 
-11.3772 0.371012 -2.32761 -12.6466 -0.42615 -2.45885 -14.1422 -1.407 -2.60684 
-15.8717 -2.67547 -2.784 -17.809 -4.27656 -3.0007 -19.8498 -6.14089 -3.33206 
-21.7466 -8.21256 -3.82153 -23.2533 -10.4178 -4.35502 -24.3521 -12.5776 -4.79112 
-10.1189 0.518044 -2.45262 -9.95099 -0.0905368 -2.74728 -9.84003 -0.770281 -3.10777 
-9.87614 -1.50823 -3.4691 -10.1335 -2.35643 -3.70785 -10.588 -3.36633 -3.82058 
-11.1505 -4.40428 -3.85507 -11.7948 -5.24081 -3.79779 -12.5853 -5.85752 -3.65901 
-11.1843 1.07071 -1.99656 -12.2129 1.03443 -1.80785 -13.3921 0.920539 -1.62415 
-14.6261 0.656559 -1.42084 -15.868 0.217164 -1.2325 -17.1228 -0.318184 -1.09264 
-18.3135 -0.911112 -0.956079 -19.3972 -1.54603 -0.835495 -20.4123 -2.16347 -0.78303 
-9.16405 1.28647 -2.18428 -7.92594 1.44015 -2.15246 -6.64309 1.53231 -2.08759 
-5.31259 1.54908 -1.98315 -3.92054 1.35379 -1.81174 -2.66585 0.924725 -1.5405 
-1.78259 0.379202 -1.14723 -1.24044 -0.255584 -0.660236 -0.95885 -0.971818 -0.170282 
-9.87022 1.68827 -1.87538 -9.49364 2.36352 -1.48321 -9.15944 3.04404 -1.0633 
-8.87904 3.68794 -0.598327 -8.73462 4.26627 -0.0146436 -8.72659 4.83895 0.574469 
-8.8144 5.37813 1.09055 -9.01886 5.73805 1.70654 -9.29691 5.88533 2.46258 
-24.671 -14.3204 -5.12315 -24.1022 -13.9558 -5.1334 -23.3823 -13.3863 -5.07853 
-22.4667 -12.5899 -4.86213 -21.4006 -11.5438 -4.5146 -20.1127 -10.1873 -4.14611 
-18.4678 -8.65663 -3.80384 -16.6283 -7.3755 -3.55364 -14.9375 -6.65051 -3.4654 
-25.1908 -13.4931 -4.89137 -25.1072 -12.3268 -4.58393 -24.861 -10.9817 -4.20801 
-24.4939 -9.55354 -3.77028 -24.0738 -8.24932 -3.22821 -23.563 -7.01403 -2.64021 
-22.9548 -5.70413 -2.12557 -22.3517 -4.47605 -1.67204 -21.8187 -3.50604 -1.21805 
-25.5684 -16.3644 -5.4069 -25.8694 -18.3272 -5.75775 -25.9808 -20.3451 -6.14846 
-25.7794 -22.4277 -6.41011 -25.2384 -24.5065 -6.47129 -24.4587 -26.2715 -6.48902 
-23.5894 -27.4389 -6.45758 -22.8167 -27.9855 -6.16957 -22.3251 -28.041 -5.62144 
-25.9433 -15.7535 -5.28424 -26.6995 -16.9464 -5.4603 -27.3587 -18.0972 -5.59445 
-27.9187 -19.1926 -5.61114 -28.3949 -20.1241 -5.45492 -28.763 -20.7246 -5.1754 
-29.0999 -20.9617 -4.83866 -29.4665 -20.9538 -4.39451 -29.7452 -20.7906 -3.83463 
-10.4885 -2.93209 3.96836 -11.8272 -3.59998 3.89052 -13.3766 -4.26789 3.69224 
-15.1521 -5.01414 3.30617 -17.0814 -6.05448 2.77252 -19.0192 -7.56713 2.15007 
-20.7318 -9.4533 1.46631 -22.072 -11.4348 0.781091 -23.1204 -13.3529 0.165357 
-9.34684 -2.92539 3.78307 -9.43374 -3.5406 3.4454 -9.61246 -4.16196 3.0378 
-9.9168 -4.8371 2.62198 -10.3582 -5.50271 2.17758 -10.9084 -6.08868 1.69367 
-11.5295 -6.60135 1.22711 -12.2325 -7.02836 0.793053 -13.0369 -7.36927 0.379271 
-10.0096 -2.05161 4.20482 -10.7168 -1.87455 4.48396 -11.4856 -1.70323 4.75833 
-12.5907 -1.50086 4.76146 -14.1723 -1.40601 4.47098 -15.95 -1.61263 4.15302 
-17.6632 -2.10506 3.89643 -19.3122 -2.70422 3.62949 -20.8189 -3.26514 3.35292 
-8.20787 -2.07525 3.92648 -7.13219 -1.88157 3.72383 -6.11133 -1.67697 3.3911 
-5.05558 -1.53464 3.06022 -4.01337 -1.51288 2.74584 -3.11224 -1.52771 2.33182 
-2.28528 -1.53201 1.85111 -1.52899 -1.57266 1.36176 -1.05373 -1.63658 0.822309 
-8.62975 -1.41826 4.16962 -8.01104 -0.437635 4.34591 -7.56818 0.622388 4.50808 
-7.33344 1.76917 4.55427 -7.26859 2.91239 4.48224 -7.39021 3.92845 4.39608 
-7.77107 4.8126 4.28999 -8.37325 5.50208 4.05958 -9.01583 5.85814 3.66936 
-23.4481 -14.7227 -0.34782 -22.807 -14.0717 -0.332494 -21.9891 -13.2911 -0.206415 
-21.0506 -12.3499 -0.0480173 -20.0475 -11.2726 0.0642822 -18.9235 -10.1863 0.167198 
-17.6883 -9.19435 0.225459 -16.4171 -8.40327 0.188962 -15.139 -7.91286 0.105276 
-24.0592 -14.4245 -0.102641 -24.1625 -13.5391 0.128067 -24.185 -12.4802 0.428959 
-24.0427 -11.1955 0.81347 -23.8193 -9.87502 1.23927 -23.6097 -8.73051 1.71804 
-23.3687 -7.60578 2.20504 -23.016 -6.30129 2.58526 -22.5403 -4.94392 2.85059 
-24.4448 -16.997 -0.75724 -24.7992 -19.1236 -1.12628 -24.9225 -21.3886 -1.42313 
-24.7727 -23.5098 -1.74866 -24.3887 -25.2961 -2.22201 -23.8074 -26.6519 -2.74544 
-23.1059 -27.529 -3.22795 -22.485 -27.9523 -3.78334 -22.1608 -28.0045 -4.42864 
-24.8309 -16.6301 -0.643927 -25.6843 -18.0625 -0.98325 -26.4723 -19.4393 -1.27691 
-27.206 -20.6516 -1.44109 -27.9442 -21.482 -1.5736 -28.5817 -21.7994 -1.85024 
-29.0071 -21.7109 -2.2332 -29.3219 -21.3953 -2.58469 -29.6149 -20.9708 -2.91292 
-13.4133 -6.7645 -3.38657 -13.3284 -7.09345 -3.15468 -13.2645 -7.38699 -2.84551 
-13.1923 -7.64654 -2.53263 -13.129 -7.84727 -2.16463 -13.1466 -7.94939 -1.66926 
-13.2757 -7.96101 -1.13237 -13.4709 -7.91215 -0.672164 -13.6841 -7.81577 -0.304769 
-15.5428 -7.40743 -3.39456 -17.6622 -9.30694 -3.54215 -19.4232 -11.9405 -3.88162 
-20.8017 -14.7576 -4.20067 -22.0327 -17.5739 -4.43838 -22.9053 -20.416 -4.70819 
-23.1352 -22.9926 -4.99275 -22.8941 -25.0492 -5.16328 -22.4969 -26.6138 -5.16441 
-11.6879 -6.21355 -3.71576 -9.91268 -6.1612 -3.93825 -8.20482 -5.93364 -3.90286 
-6.67908 -5.4717 -3.44488 -5.39235 -4.86064 -2.74326 -4.18499 -4.21434 -2.12476 
-3.04087 -3.63307 -1.60734 -2.09813 -3.05119 -1.02203 -1.40028 -2.37802 -0.370497 
-15.5855 -8.3348 -0.30735 -17.2908 -9.61237 -0.724815 -18.8265 -11.5868 -1.28077 
-20.2428 -14.1291 -1.86699 -21.5714 -17.1294 -2.36566 -22.5107 -20.28 -2.89767 
-22.8404 -23.0296 -3.54369 -22.7202 -25.1066 -4.12891 -22.4158 -26.6276 -4.57852 
-12.1083 -7.46286 0.0700767 -10.3223 -7.30749 0.0677952 -8.63264 -7.05976 0.0329389 
-7.00373 -6.76015 0.0461965 -5.46526 -6.43576 0.143286 -4.16758 -5.89409 0.236478 
-3.12671 -5.01968 0.236865 -2.2225 -3.93623 0.205704 -1.46149 -2.79122 0.222204 
-21.5926 -2.63191 -0.457789 -21.8058 -2.52615 -0.0598137 -22.0102 -2.41303 0.395341 
-22.2202 -2.26414 0.869544 -22.3635 -2.12929 1.38877 -22.3971 -2.16551 1.95833 
-22.3823 -2.44327 2.46747 -22.3427 -2.86409 2.80603 -22.2237 -3.31302 2.98055 
-22.5466 -3.84 -1.04382 -23.8394 -5.24076 -1.36041 -25.1931 -6.94857 -1.73619 
-26.5145 -8.75614 -2.17211 -27.7122 -10.6013 -2.66689 -28.7746 -12.789 -3.1712 
-29.6068 -15.2997 -3.50684 -30.0222 -17.5508 -3.55424 -30.0275 -19.2149 -3.42245 
-20.2974 -1.61865 -0.335959 -19.1404 -0.373343 0.108367 -17.9239 0.845573 0.572878 
-16.7046 1.91445 1.05289 -15.4518 2.97473 1.48117 -14.1284 3.98517 1.83729 
-12.8121 4.68707 2.18891 -11.6102 5.15591 2.56046 -10.5402 5.57917 2.90507 
-23.2246 -4.95859 2.54965 -24.3366 -6.43637 1.86361 -25.579 -8.18042 1.08427 
-27.0182 -10.0903 0.320706 -28.3634 -12.0929 -0.391336 -29.3016 -14.1465 -1.07681 
-29.7715 -16.1181 -1.73631 -29.9231 -17.8538 -2.32833 -29.9221 -19.2979 -2.83171 
-20.6929 -2.35197 3.44047 -19.1746 -0.887859 3.77006 -17.6407 0.641114 4.09684 
-16.1801 2.06271 4.45716 -14.783 3.21385 4.70157 -13.5165 4.09727 4.6381 
-12.4014 4.77047 4.34038 -11.3689 5.27782 3.99528 -10.4113 5.64795 3.62504 
-22.1277 -28.906 -5.15357 -22.7272 -29.7257 -5.25131 -24.1333 -29.8603 -5.18268 
-25.8445 -29.1997 -4.94456 -27.1765 -28.1106 -4.68793 -28.0758 -26.9081 -4.46318 
-28.7721 -25.4768 -4.1806 -29.2659 -23.7521 -3.8334 -29.5815 -22.0104 -3.51563 
-0.724059 -0.544591 0.571483 -0.864047 0.59958 0.86034 -1.3644 1.74384 1.14289 
-2.02779 2.93414 1.42907 -2.81976 4.05274 1.64855 -3.95499 4.89895 1.83271 
-5.44478 5.48983 2.13546 -6.9893 5.88556 2.5534 -8.36422 6.01998 2.92968 
-11.2804 -0.157616 -2.61116 -11.2082 -0.763132 -2.92985 -12.6671 -0.989169 -2.76299 
-11.2113 -1.46093 -3.22263 -12.7616 -1.64951 -3.05996 -14.3452 -2.08805 -2.91104 
-11.377 -2.28326 -3.41984 -12.9624 -2.4444 -3.24788 -14.6911 -2.89562 -3.16587 
-16.3181 -3.55436 -3.05888 -11.7389 -3.25052 -3.56625 -13.2898 -3.36606 -3.38887 
-15.141 -3.79602 -3.35085 -16.9231 -4.51668 -3.3191 -18.4827 -5.35213 -3.28512 
-12.2849 -4.2548 -3.67595 -13.8201 -4.35818 -3.55901 -15.7263 -4.80143 -3.5458 
-17.6268 -5.58119 -3.58041 -19.2657 -6.5323 -3.62515 -20.6291 -7.44029 -3.70946 
-13.0138 -5.11727 -3.66353 -14.6285 -5.32904 -3.63133 -16.5723 -5.96205 -3.69134 
-18.472 -6.92099 -3.80175 -20.0867 -7.99672 -3.96033 -21.4037 -8.98005 -4.13501 
-22.4411 -9.77934 -4.27216 -13.9204 -5.8585 -3.5553 -15.6274 -6.29802 -3.57891 
-17.5795 -7.26263 -3.73768 -19.3892 -8.52737 -3.96179 -20.8582 -9.76627 -4.23679 
-22.0592 -10.8011 -4.51719 -23.0174 -11.5851 -4.69784 -23.7505 -12.1555 -4.77042 
-8.87855 0.68085 -2.4579 -7.58023 0.756678 -2.42552 -8.66407 -0.0304261 -2.7838 
-6.26627 0.788533 -2.36484 -7.36769 -0.0232327 -2.77952 -8.57642 -0.80794 -3.23322 
-4.88119 0.655211 -2.25621 -6.03581 -0.101377 -2.69891 -7.29845 -0.922972 -3.24009 
-8.67503 -1.64543 -3.66726 -3.50767 0.228322 -2.04328 -4.6547 -0.450234 -2.52158 
-5.9449 -1.2089 -3.04085 -7.38777 -1.94049 -3.61339 -9.01249 -2.61338 -3.8991 
-2.46158 -0.360743 -1.68888 -3.48784 -1.05024 -2.23066 -4.71476 -1.73547 -2.72257 
-6.07675 -2.43649 -3.29282 -7.76291 -3.08076 -3.81863 -9.56353 -3.75802 -3.98489 
-1.83829 -0.986544 -1.23809 -2.74933 -1.6943 -1.83059 -3.89464 -2.35319 -2.35322 
-5.11823 -3.04093 -2.89514 -6.59422 -3.69984 -3.53208 -8.42424 -4.32552 -3.97619 
-10.1946 -4.87582 -4.01016 -1.49648 -1.67337 -0.782993 -2.31984 -2.35309 -1.40884 
-3.39528 -2.96975 -1.9609 -4.58129 -3.62604 -2.4926 -5.83889 -4.31461 -3.15602 
-7.38953 -4.93707 -3.79103 -9.15964 -5.42976 -4.05568 -10.8665 -5.69142 -3.92572 
-1.96992 -3.5751 -0.442896 -2.75238 -4.77921 -0.482662 -2.71983 -4.25986 -1.13392 
-3.69015 -5.85883 -0.460776 -3.52594 -5.47543 -1.1996 -3.74052 -4.8403 -1.73413 
-4.8602 -6.62266 -0.430644 -4.54582 -6.51145 -1.17075 -4.62004 -6.0418 -1.84355 
-4.98217 -5.42625 -2.3285 -6.35231 -7.04105 -0.426996 -5.86611 -7.19544 -1.06074 
[...]
POINT_DATA 1002
FIELD FieldData 4
_paraPhi 1 1002 double
6.2831853072 3.1415926536 6.2831853072 3.1415926536 4.7123889804 4.7123889804 1.5707963268 1.5707963268 3.6951670125 
5.7296109483 2.5880182947 0.5535743589 6.2831853072 6.2831853072 6.2831853072 6.2831853072 3.1415926536 3.1415926536 
3.1415926536 3.1415926536 3.1415926536 6.1053039672 5.898798347 5.6768734901 5.4599499503 5.2659633393 5.1032165617 
4.9713148346 4.8656852733 4.7809517865 0.17788134 0.38438696014 0.60631181711 0.82323535693 1.0172219679 1.1799687454 
1.3118704726 1.4175000338 1.5022335207 6.1892828907 6.1070320098 6.035312792 5.9728339911 5.9183214791 5.8706119594 
5.8286879411 5.7916808611 5.7588591896 0.093902416448 0.17615329733 0.2478725152 0.31035131605 0.36486382811 0.41257334776 
0.45449736604 0.4915044461 0.52432611754 3.3194739936 3.5259796137 3.7479044707 3.9648280105 4.1588146215 4.321561399 
4.4534631262 4.5590926874 4.6438261743 2.9637113136 2.7572056934 2.5352808365 2.3183572967 2.1243706857 1.9616239082 
1.829722181 1.7240926197 1.6393591329 3.23549507 3.3177459509 3.3894651688 3.4519439696 3.5064564817 3.5541660013 
3.5960900196 3.6330970997 3.6659187711 3.0476902371 2.9654393563 2.8937201384 2.8312413375 2.7767288255 2.7290193058 
2.6870952876 2.6500882075 2.617266536 6.2831853072 6.2831853072 6.2831853072 6.2831853072 3.1415926536 3.1415926536 
3.1415926536 3.1415926536 3.1415926536 6.1053039672 5.898798347 5.6768734901 5.4599499503 5.2659633393 5.1032165617 
4.9713148346 4.8656852733 4.7809517865 0.17788134 0.38438696014 0.60631181711 0.82323535693 1.0172219679 1.1799687454 
1.3118704726 1.4175000338 1.5022335207 6.1892828907 6.1070320098 6.035312792 5.9728339911 5.9183214791 5.8706119594 
5.8286879411 5.7916808611 5.7588591896 0.093902416448 0.17615329733 0.2478725152 0.31035131605 0.36486382811 0.41257334776 
0.45449736604 0.4915044461 0.52432611754 3.3194739936 3.5259796137 3.7479044707 3.9648280105 4.1588146215 4.321561399 
4.4534631262 4.5590926874 4.6438261743 2.9637113136 2.7572056934 2.5352808365 2.3183572967 2.1243706857 1.9616239082 
1.829722181 1.7240926197 1.6393591329 3.23549507 3.3177459509 3.3894651688 3.4519439696 3.5064564817 3.5541660013 
3.5960900196 3.6330970997 3.6659187711 3.0476902371 2.9654393563 2.8937201384 2.8312413375 2.7767288255 2.7290193058 
2.6870952876 2.6500882075 2.617266536 4.7123889804 4.7123889804 4.7123889804 4.7123889804 4.7123889804 4.7123889804 
4.7123889804 4.7123889804 4.7123889804 4.6087898617 4.4991390697 4.3857031936 4.2712800401 4.1588146215 4.0509635631 
3.94975894 3.8564636551 3.7716124825 4.8159880991 4.9256388911 5.0390747672 5.1534979207 5.2659633393 5.3738143976 
5.4750190208 5.5683143056 5.6531654782 4.6087898617 4.4991390697 4.3857031936 4.2712800401 4.1588146215 4.0509635631 
3.94975894 3.8564636551 3.7716124825 4.8159880991 4.9256388911 5.0390747672 5.1534979207 5.2659633393 5.3738143976 
5.4750190208 5.5683143056 5.6531654782 1.5707963268 1.5707963268 1.5707963268 1.5707963268 1.5707963268 1.5707963268 
1.5707963268 1.5707963268 1.5707963268 1.6743954455 1.7840462375 1.8974821136 2.0119052671 2.1243706857 2.232221744 
2.3334263672 2.426721652 2.5115728246 1.4671972081 1.3575464161 1.24411054 1.1296873865 1.0172219679 0.90937090954 
0.80816628637 0.71487100155 0.63001982895 1.6743954455 1.7840462375 1.8974821136 2.0119052671 2.1243706857 2.232221744 
2.3334263672 2.426721652 2.5115728246 1.4671972081 1.3575464161 1.24411054 1.1296873865 1.0172219679 0.90937090954 
0.80816628637 0.71487100155 0.63001982895 3.6007720849 3.4966939854 3.3839471039 3.2645756454 3.1415926536 3.0186096618 
2.8992382033 2.7864913217 2.6824132222 5.8240058758 5.9280839753 6.0408308569 6.1602023154 6.2831853072 0.12298299178 
0.2423544503 0.35510133185 0.45917943135 6.0560271438 5.7885595667 5.9702140275 5.5125918794 5.6029703303 5.7885595667 
5.2659633393 5.2659633393 5.2659633393 5.2659633393 5.0674903122 5.0120975802 4.9155579264 4.7123889804 4.1588146215 
4.9155579264 4.8353719722 4.7123889804 4.5092200343 4.1588146215 3.6362183941 4.8004512023 4.7123889804 4.5894059886 
4.4126803806 4.1588146215 3.8218076305 3.4545639333 4.7123889804 4.6243267584 4.5092200343 4.3572876485 4.1588146215 
3.9121860814 3.6362183941 3.368750817 6.0174235957 5.9434319871 5.8263323547 5.8809213739 5.7674481418 5.6279784266 
5.8278025282 5.718968232 5.5891129425 5.4372443565 5.7823484065 5.678536687 5.5575666702 5.4192596322 5.2659633393 
5.743164462 5.6444075337 5.5314983644 5.4046708639 5.2659633393 5.1195510325 5.7091357773 5.6152775188 5.5096229709 
5.3926039573 5.2659633393 5.1329233157 4.9978930058 5.6793730533 5.5901633916 5.4910209005 5.3824597928 5.2659633393 
5.1440684722 5.0201624502 4.8979782167 5.5683143056 5.4750190208 5.4750190208 5.3738143976 5.3738143976 5.3738143976 
5.2659633393 5.2659633393 5.2659633393 5.2659633393 5.1534979207 5.1534979207 5.1534979207 5.1534979207 5.1534979207 
5.0390747672 5.0390747672 5.0390747672 5.0390747672 5.0390747672 5.0390747672 4.9256388911 4.9256388911 4.9256388911 
4.9256388911 4.9256388911 4.9256388911 4.9256388911 4.8159880991 4.8159880991 4.8159880991 4.8159880991 4.8159880991 
4.8159880991 4.8159880991 4.8159880991 4.6087898617 4.6087898617 4.4991390697 4.6087898617 4.4991390697 4.3857031936 
4.6087898617 4.4991390697 4.3857031936 4.2712800401 4.6087898617 4.4991390697 4.3857031936 4.2712800401 4.1588146215 
4.6087898617 4.4991390697 4.3857031936 4.2712800401 4.1588146215 4.0509635631 4.6087898617 4.4991390697 4.3857031936 
4.2712800401 4.1588146215 4.0509635631 3.94975894 4.6087898617 4.4991390697 4.3857031936 4.2712800401 4.1588146215 
4.0509635631 3.94975894 3.8564636551 4.526799744 4.4046155105 4.426884955 4.2807094886 4.2918546451 4.3052269283 
4.1588146215 4.1588146215 4.1588146215 4.1588146215 4.042318168 4.0321740035 4.0201070968 4.0055183285 3.9875336042 
3.9337570603 3.9151549899 3.8932795963 3.8672112905 3.8356650183 3.7967995342 3.8346145692 3.809500442 3.7803704271 
3.7462412737 3.7058097288 3.657329819 3.5984456061 3.7454049075 3.7156421835 3.6816134988 3.6424295543 3.5969754326 
3.5438565869 3.4813459737 3.4073543651 3.5642842451 3.4524645613 3.5233842518 3.3320300872 3.403123212 3.4773852225 
3.20576226 3.2746326772 3.348015857 3.4255060145 3.0774230472 3.1415926536 3.2112816139 3.2864685043 3.3668817272 
2.95115522 3.00855263 3.0719036933 3.1415926536 3.2178377658 3.3005964304 2.8307207459 2.8800620952 2.9351694502 
2.9967168029 3.0653475414 3.1415926536 3.225752376 2.718901062 2.7598010554 2.8058000847 2.8576792927 2.91630358 
2.9825888767 3.0574329311 3.1415926536 3.5642842451 3.5233842518 3.4524645613 3.4773852225 3.403123212 3.3320300872 
3.4255060145 3.348015857 3.2746326772 3.20576226 3.3668817272 3.2864685043 3.2112816139 3.1415926536 3.0774230472 
3.3005964304 3.2178377658 3.1415926536 3.0719036933 3.00855263 2.95115522 3.225752376 3.1415926536 3.0653475414 
2.9967168029 2.9351694502 2.8800620952 2.8307207459 3.1415926536 3.0574329311 2.9825888767 2.91630358 2.8576792927 
2.8058000847 2.7598010554 2.718901062 4.526799744 4.426884955 4.4046155105 4.3052269283 4.2918546451 4.2807094886 
4.1588146215 4.1588146215 4.1588146215 4.1588146215 3.9875336042 4.0055183285 4.0201070968 4.0321740035 4.042318168 
3.7967995342 3.8356650183 3.8672112905 3.8932795963 3.9151549899 3.9337570603 3.5984456061 3.657329819 3.7058097288 
3.7462412737 3.7803704271 3.809500442 3.8346145692 3.4073543651 3.4813459737 3.5438565869 3.5969754326 3.6424295543 
3.6816134988 3.7156421835 3.7454049075 4.7123889804 4.8004512023 4.6243267584 4.9155579264 4.7123889804 4.5092200343 
5.0674903122 4.8353719722 4.5894059886 4.3572876485 5.2659633393 5.0120975802 4.7123889804 4.4126803806 4.1588146215 
5.5125918794 5.2659633393 4.9155579264 4.5092200343 4.1588146215 3.9121860814 5.7885595667 5.6029703303 5.2659633393 
4.7123889804 4.1588146215 3.8218076305 3.6362183941 6.0560271438 5.9702140275 5.7885595667 5.2659633393 4.1588146215 
3.6362183941 3.4545639333 3.368750817 0.22715816343 0.49462574053 0.3129712797 0.77059342779 0.68021497688 0.49462574053 
1.0172219679 1.0172219679 1.0172219679 1.0172219679 1.2156949949 1.271087727 1.3676273807 1.5707963268 2.1243706857 
1.3676273807 1.447813335 1.5707963268 1.7739652728 2.1243706857 2.6469669131 1.4827341049 1.5707963268 1.6937793186 
1.8705049266 2.1243706857 2.4613776767 2.8286213739 1.5707963268 1.6588585487 1.7739652728 1.9258976586 2.1243706857 
2.3709992258 2.6469669131 2.9144344902 1.7563855631 1.8785697967 1.8563003522 2.0024758186 1.9913306621 1.9779583789 
2.1243706857 2.1243706857 2.1243706857 2.1243706857 2.2408671392 2.2510113037 2.2630782103 2.2776669786 2.295651703 
2.3494282469 2.3680303173 2.3899057108 2.4159740166 2.4475202889 2.486385773 2.448570738 2.4736848652 2.5028148801 
2.5369440334 2.5773755784 2.6258554882 2.6847397011 2.5377803997 2.5675431237 2.6015718084 2.6407557529 2.6862098746 
2.7393287203 2.8018393335 2.8758309421 1.6743954455 1.6743954455 1.7840462375 1.6743954455 1.7840462375 1.8974821136 
1.6743954455 1.7840462375 1.8974821136 2.0119052671 1.6743954455 1.7840462375 1.8974821136 2.0119052671 2.1243706857 
1.6743954455 1.7840462375 1.8974821136 2.0119052671 2.1243706857 2.232221744 1.6743954455 1.7840462375 1.8974821136 
2.0119052671 2.1243706857 2.232221744 2.3334263672 1.6743954455 1.7840462375 1.8974821136 2.0119052671 2.1243706857 
2.232221744 2.3334263672 2.426721652 1.4671972081 1.3575464161 1.4671972081 1.24411054 1.3575464161 1.4671972081 
1.1296873865 1.24411054 1.3575464161 1.4671972081 1.0172219679 1.1296873865 1.24411054 1.3575464161 1.4671972081 
0.90937090954 1.0172219679 1.1296873865 1.24411054 1.3575464161 1.4671972081 0.80816628637 0.90937090954 1.0172219679 
1.1296873865 1.24411054 1.3575464161 1.4671972081 0.71487100155 0.80816628637 0.90937090954 1.0172219679 1.1296873865 
1.24411054 1.3575464161 1.4671972081 0.60381225391 0.57404952988 0.69302191562 0.54002084522 0.66790778838 0.79216440667 
0.50083690068 0.63877777351 0.77356233629 0.90072551443 0.45538277901 0.60464862014 0.75168694275 0.89058134991 1.0172219679 
0.40226393329 0.56421707518 0.72561863695 0.87851444325 1.0172219679 1.139116835 0.33975332011 0.51573716537 0.69407236469 
0.86392567495 1.0172219679 1.1502619915 1.2630228569 0.26576171152 0.45685295248 0.6552068806 0.84594095064 1.0172219679 
1.1636342747 1.2852923014 1.3852070904 0.22715816343 0.3129712797 0.49462574053 0.49462574053 0.68021497688 0.77059342779 
1.0172219679 1.0172219679 1.0172219679 1.0172219679 2.1243706857 1.5707963268 1.3676273807 1.271087727 1.2156949949 
2.6469669131 2.1243706857 1.7739652728 1.5707963268 1.447813335 1.3676273807 2.8286213739 2.4613776767 2.1243706857 
1.8705049266 1.6937793186 1.5707963268 1.4827341049 2.9144344902 2.6469669131 2.3709992258 2.1243706857 1.9258976586 
1.7739652728 1.6588585487 1.5707963268 1.7563855631 1.8563003522 1.8785697967 1.9779583789 1.9913306621 2.0024758186 
2.1243706857 2.1243706857 2.1243706857 2.1243706857 2.295651703 2.2776669786 2.2630782103 2.2510113037 2.2408671392 
2.486385773 2.4475202889 2.4159740166 2.3899057108 2.3680303173 2.3494282469 2.6847397011 2.6258554882 2.5773755784 
2.5369440334 2.5028148801 2.4736848652 2.448570738 2.8758309421 2.8018393335 2.7393287203 2.6862098746 2.6407557529 
2.6015718084 2.5675431237 2.5377803997 5.8604937156 5.901393709 5.9723133995 5.9473927383 6.0216547488 6.0927478736 
5.9992719463 6.0767621038 6.1501452836 6.2190157008 6.0578962336 6.1383094565 6.2134963469 0 0.064169606361 
6.1241815303 6.206940195 6.2831853072 0.069688960264 0.13304002361 0.19043743361 6.1990255847 0 0.07624511221 
0.14487585072 0.20642320337 0.26153055843 0.3108719077 0 0.084159722458 0.15900377685 0.22528907359 0.28391336087 
0.3357925689 0.38179159818 0.42269159155 5.8604937156 5.9723133995 5.901393709 6.0927478736 6.0216547488 5.9473927383 
6.2190157008 6.1501452836 6.0767621038 5.9992719463 0.064169606361 0 6.2134963469 6.1383094565 6.0578962336 
0.19043743361 0.13304002361 0.069688960264 6.2831853072 6.206940195 6.1241815303 0.3108719077 0.26153055843 0.20642320337 
0.14487585072 0.07624511221 6.2831853072 6.1990255847 0.42269159155 0.38179159818 0.3357925689 0.28391336087 0.22528907359 
0.15900377685 0.084159722458 0 5.6793730533 5.7091357773 5.5901633916 5.743164462 5.6152775188 5.4910209005 
5.7823484065 5.6444075337 5.5096229709 5.3824597928 5.8278025282 5.678536687 5.5314983644 5.3926039573 5.2659633393 
5.8809213739 5.718968232 5.5575666702 5.4046708639 5.2659633393 5.1440684722 5.9434319871 5.7674481418 5.5891129425 
5.4192596322 5.2659633393 5.1329233157 5.0201624502 6.0174235957 5.8263323547 5.6279784266 5.4372443565 5.2659633393 
5.1195510325 4.9978930058 4.8979782167 1.3852070904 1.2852923014 1.2630228569 1.1636342747 1.1502619915 1.139116835 
1.0172219679 1.0172219679 1.0172219679 1.0172219679 0.84594095064 0.86392567495 0.87851444325 0.89058134991 0.90072551443 
0.6552068806 0.69407236469 0.72561863695 0.75168694275 0.77356233629 0.79216440667 0.45685295248 0.51573716537 0.56421707518 
0.60464862014 0.63877777351 0.66790778838 0.69302191562 0.26576171152 0.33975332011 0.40226393329 0.45538277901 0.50083690068 
0.54002084522 0.57404952988 0.60381225391 
_paraPhiHalf 1 1002 double
0 3.1415926536 0 3.1415926536 1.5707963268 1.5707963268 1.5707963268 1.5707963268 2.5880182947 
0.5535743589 2.5880182947 0.5535743589 0 0 0 0 3.1415926536 3.1415926536 
3.1415926536 3.1415926536 3.1415926536 0.17788134 0.38438696014 0.60631181711 0.82323535693 1.0172219679 1.1799687454 
1.3118704726 1.4175000338 1.5022335207 0.17788134 0.38438696014 0.60631181711 0.82323535693 1.0172219679 1.1799687454 
1.3118704726 1.4175000338 1.5022335207 0.093902416448 0.17615329733 0.2478725152 0.31035131605 0.36486382811 0.41257334776 
0.45449736604 0.4915044461 0.52432611754 0.093902416448 0.17615329733 0.2478725152 0.31035131605 0.36486382811 0.41257334776 
0.45449736604 0.4915044461 0.52432611754 2.9637113136 2.7572056934 2.5352808365 2.3183572967 2.1243706857 1.9616239082 
1.829722181 1.7240926197 1.6393591329 2.9637113136 2.7572056934 2.5352808365 2.3183572967 2.1243706857 1.9616239082 
1.829722181 1.7240926197 1.6393591329 3.0476902371 2.9654393563 2.8937201384 2.8312413375 2.7767288255 2.7290193058 
2.6870952876 2.6500882075 2.617266536 3.0476902371 2.9654393563 2.8937201384 2.8312413375 2.7767288255 2.7290193058 
2.6870952876 2.6500882075 2.617266536 0 0 0 0 3.1415926536 3.1415926536 
3.1415926536 3.1415926536 3.1415926536 0.17788134 0.38438696014 0.60631181711 0.82323535693 1.0172219679 1.1799687454 
1.3118704726 1.4175000338 1.5022335207 0.17788134 0.38438696014 0.60631181711 0.82323535693 1.0172219679 1.1799687454 
1.3118704726 1.4175000338 1.5022335207 0.093902416448 0.17615329733 0.2478725152 0.31035131605 0.36486382811 0.41257334776 
0.45449736604 0.4915044461 0.52432611754 0.093902416448 0.17615329733 0.2478725152 0.31035131605 0.36486382811 0.41257334776 
0.45449736604 0.4915044461 0.52432611754 2.9637113136 2.7572056934 2.5352808365 2.3183572967 2.1243706857 1.9616239082 
1.829722181 1.7240926197 1.6393591329 2.9637113136 2.7572056934 2.5352808365 2.3183572967 2.1243706857 1.9616239082 
1.829722181 1.7240926197 1.6393591329 3.0476902371 2.9654393563 2.8937201384 2.8312413375 2.7767288255 2.7290193058 
2.6870952876 2.6500882075 2.617266536 3.0476902371 2.9654393563 2.8937201384 2.8312413375 2.7767288255 2.7290193058 
2.6870952876 2.6500882075 2.617266536 1.5707963268 1.5707963268 1.5707963268 1.5707963268 1.5707963268 1.5707963268 
1.5707963268 1.5707963268 1.5707963268 1.6743954455 1.7840462375 1.8974821136 2.0119052671 2.1243706857 2.232221744 
2.3334263672 2.426721652 2.5115728246 1.4671972081 1.3575464161 1.24411054 1.1296873865 1.0172219679 0.90937090954 
0.80816628637 0.71487100155 0.63001982895 1.6743954455 1.7840462375 1.8974821136 2.0119052671 2.1243706857 2.232221744 
2.3334263672 2.426721652 2.5115728246 1.4671972081 1.3575464161 1.24411054 1.1296873865 1.0172219679 0.90937090954 
0.80816628637 0.71487100155 0.63001982895 1.5707963268 1.5707963268 1.5707963268 1.5707963268 1.5707963268 1.5707963268 
1.5707963268 1.5707963268 1.5707963268 1.6743954455 1.7840462375 1.8974821136 2.0119052671 2.1243706857 2.232221744 
2.3334263672 2.426721652 2.5115728246 1.4671972081 1.3575464161 1.24411054 1.1296873865 1.0172219679 0.90937090954 
0.80816628637 0.71487100155 0.63001982895 1.6743954455 1.7840462375 1.8974821136 2.0119052671 2.1243706857 2.232221744 
2.3334263672 2.426721652 2.5115728246 1.4671972081 1.3575464161 1.24411054 1.1296873865 1.0172219679 0.90937090954 
0.80816628637 0.71487100155 0.63001982895 2.6824132222 2.7864913217 2.8992382033 3.0186096618 3.1415926536 3.0186096618 
2.8992382033 2.7864913217 2.6824132222 0.45917943135 0.35510133185 0.2423544503 0.12298299178 0 0.12298299178 
0.2423544503 0.35510133185 0.45917943135 0.22715816343 0.49462574053 0.3129712797 0.77059342779 0.68021497688 0.49462574053 
1.0172219679 1.0172219679 1.0172219679 1.0172219679 1.2156949949 1.271087727 1.3676273807 1.5707963268 2.1243706857 
1.3676273807 1.447813335 1.5707963268 1.7739652728 2.1243706857 2.6469669131 1.4827341049 1.5707963268 1.6937793186 
1.8705049266 2.1243706857 2.4613776767 2.8286213739 1.5707963268 1.6588585487 1.7739652728 1.9258976586 2.1243706857 
2.3709992258 2.6469669131 2.9144344902 0.26576171152 0.33975332011 0.45685295248 0.40226393329 0.51573716537 0.6552068806 
0.45538277901 0.56421707518 0.69407236469 0.84594095064 0.50083690068 0.60464862014 0.72561863695 0.86392567495 1.0172219679 
0.54002084522 0.63877777351 0.75168694275 0.87851444325 1.0172219679 1.1636342747 0.57404952988 0.66790778838 0.77356233629 
0.89058134991 1.0172219679 1.1502619915 1.2852923014 0.60381225391 0.69302191562 0.79216440667 0.90072551443 1.0172219679 
1.139116835 1.2630228569 1.3852070904 0.71487100155 0.80816628637 0.80816628637 0.90937090954 0.90937090954 0.90937090954 
1.0172219679 1.0172219679 1.0172219679 1.0172219679 1.1296873865 1.1296873865 1.1296873865 1.1296873865 1.1296873865 
1.24411054 1.24411054 1.24411054 1.24411054 1.24411054 1.24411054 1.3575464161 1.3575464161 1.3575464161 
1.3575464161 1.3575464161 1.3575464161 1.3575464161 1.4671972081 1.4671972081 1.4671972081 1.4671972081 1.4671972081 
1.4671972081 1.4671972081 1.4671972081 1.6743954455 1.6743954455 1.7840462375 1.6743954455 1.7840462375 1.8974821136 
1.6743954455 1.7840462375 1.8974821136 2.0119052671 1.6743954455 1.7840462375 1.8974821136 2.0119052671 2.1243706857 
1.6743954455 1.7840462375 1.8974821136 2.0119052671 2.1243706857 2.232221744 1.6743954455 1.7840462375 1.8974821136 
2.0119052671 2.1243706857 2.232221744 2.3334263672 1.6743954455 1.7840462375 1.8974821136 2.0119052671 2.1243706857 
2.232221744 2.3334263672 2.426721652 1.7563855631 1.8785697967 1.8563003522 2.0024758186 1.9913306621 1.9779583789 
2.1243706857 2.1243706857 2.1243706857 2.1243706857 2.2408671392 2.2510113037 2.2630782103 2.2776669786 2.295651703 
2.3494282469 2.3680303173 2.3899057108 2.4159740166 2.4475202889 2.486385773 2.448570738 2.4736848652 2.5028148801 
2.5369440334 2.5773755784 2.6258554882 2.6847397011 2.5377803997 2.5675431237 2.6015718084 2.6407557529 2.6862098746 
2.7393287203 2.8018393335 2.8758309421 2.718901062 2.8307207459 2.7598010554 2.95115522 2.8800620952 2.8058000847 
3.0774230472 3.00855263 2.9351694502 2.8576792927 3.0774230472 3.1415926536 3.0719036933 2.9967168029 2.91630358 
2.95115522 3.00855263 3.0719036933 3.1415926536 3.0653475414 2.9825888767 2.8307207459 2.8800620952 2.9351694502 
2.9967168029 3.0653475414 3.1415926536 3.0574329311 2.718901062 2.7598010554 2.8058000847 2.8576792927 2.91630358 
2.9825888767 3.0574329311 3.1415926536 2.718901062 2.7598010554 2.8307207459 2.8058000847 2.8800620952 2.95115522 
2.8576792927 2.9351694502 3.00855263 3.0774230472 2.91630358 2.9967168029 3.0719036933 3.1415926536 3.0774230472 
2.9825888767 3.0653475414 3.1415926536 3.0719036933 3.00855263 2.95115522 3.0574329311 3.1415926536 3.0653475414 