# vtk DataFile Version 5.1
vtk output
ASCII
DATASET POLYDATA
POINTS 1002 float
-10.6634 0.828907 -2.72358 -24.5582 -15.8257 -7.28934 -9.67617 -2.65904 3.50099 
-23.7769 -17.1272 -2.3894 -13.3319 -6.76943 -4.02557 -14.3946 -8.3857 -0.967074 
-21.7552 -3.43895 -2.03829 -21.8599 -4.66851 1.97174 -21.5954 -28.2765 -9.62351 
-0.861248 -0.691043 -0.240041 -28.259 -22.1422 -6.74386 -11.0787 5.99622 2.76295 
-11.681 -0.0110154 -2.89745 -12.8946 -0.949233 -3.12371 -14.3303 -1.99469 -3.3764 
-16.1077 -3.29278 -3.64603 -18.2088 -5.03579 -4.04106 -20.2638 -7.20912 -4.64881 
-21.9071 -9.57251 -5.36939 -23.1055 -11.8855 -6.06207 -23.9668 -13.9961 -6.69555 
-10.4425 0.341106 -3.0435 -10.2643 -0.249721 -3.3652 -10.1438 -0.990315 -3.65126 
-10.1454 -1.88612 -3.92934 -10.3135 -2.82949 -4.236 -10.6047 -3.75347 -4.49597 
-10.978 -4.6807 -4.57495 -11.5088 -5.52021 -4.4435 -12.3043 -6.18104 -4.21292 
-11.5343 0.763383 -2.52335 -12.5487 0.634259 -2.37341 -13.7179 0.418324 -2.26834 
-15.0054 0.098758 -2.17547 -16.3303 -0.33608 -2.10868 -17.5946 -0.903285 -2.05292 
-18.7669 -1.54944 -1.98443 -19.8724 -2.18572 -1.96099 -20.8859 -2.80761 -2.00124 
-9.54841 1.31293 -2.74843 -8.32943 1.70781 -2.69561 -7.011 1.94896 -2.52658 
-5.63371 2.01388 -2.31491 -4.31346 1.92126 -2.11003 -3.2034 1.68781 -1.8471 
-2.32253 1.28689 -1.492 -1.60153 0.704899 -1.08664 -1.08393 0.010131 -0.663315 
-10.3006 1.60161 -2.4243 -10.0541 2.3866 -2.0698 -9.8764 3.17352 -1.63466 
-9.72374 3.93155 -1.10332 -9.65677 4.59692 -0.496068 -9.75946 5.16369 0.0871961 
-10.0462 5.62941 0.619019 -10.4483 5.92688 1.24042 -10.8265 6.03464 2.0055 
-24.0076 -15.5649 -7.2495 -23.3481 -15.1034 -7.12749 -22.641 -14.4336 -6.90998 
-21.8581 -13.5564 -6.57071 -20.9217 -12.4468 -6.09952 -19.8419 -11.0892 -5.50113 
-18.5448 -9.57875 -4.84798 -16.8889 -8.18981 -4.33579 -15.0306 -7.22573 -4.09034 
-24.6973 -14.8691 -6.9023 -24.717 -13.7383 -6.45214 -24.6232 -12.4362 -5.93415 
-24.4208 -10.9702 -5.37421 -24.0904 -9.42504 -4.80654 -23.667 -7.94441 -4.2158 
-23.2018 -6.60379 -3.60733 -22.7 -5.40498 -3.03697 -22.1982 -4.34697 -2.52224 
-24.6725 -17.4563 -7.90916 -24.6612 -19.1707 -8.57994 -24.5008 -20.9346 -9.24187 
-24.1599 -22.7154 -9.86512 -23.7158 -24.4253 -10.4007 -23.2463 -25.9379 -10.7697 
-22.6673 -27.1825 -10.9227 -22.0337 -28.0718 -10.7905 -21.6348 -28.4531 -10.326 
-25.1161 -16.9538 -7.64146 -25.6301 -18.0436 -7.97811 -26.1562 -19.1014 -8.28046 
-26.6627 -20.0572 -8.45395 -27.0621 -20.8132 -8.42003 -27.4257 -21.4084 -8.29953 
-27.8492 -21.9275 -8.1853 -28.1966 -22.3074 -7.92249 -28.3137 -22.3974 -7.40356 
-10.7644 -3.36334 3.29189 -12.1063 -4.1036 3.01333 -13.8344 -4.9139 2.59523 
-15.8875 -5.9689 1.9865 -17.9691 -7.40932 1.26889 -19.821 -9.2114 0.49983 
-21.3202 -11.2565 -0.335187 -22.4252 -13.3606 -1.14167 -23.2058 -15.3451 -1.81627 
-9.53413 -3.17697 3.14636 -9.47131 -3.77721 2.77199 -9.53066 -4.44107 2.39385 
-9.74852 -5.13552 1.97339 -10.1755 -5.78872 1.48247 -10.8254 -6.34851 0.94119 
-11.6323 -6.85805 0.398077 -12.537 -7.36457 -0.106642 -13.4882 -7.87007 -0.560819 
-10.5468 -2.63823 3.70026 -11.6306 -2.70591 3.85008 -12.9668 -2.82689 3.9256 
-14.5054 -2.94272 3.88757 -16.0925 -3.06877 3.73307 -17.5311 -3.26508 3.48433 
-18.7582 -3.5453 3.12704 -19.8781 -3.89319 2.70468 -20.9369 -4.28105 2.3155 
-8.52582 -2.29991 3.44442 -7.3074 -1.98535 3.30695 -6.08494 -1.69315 3.08589 
-4.88677 -1.39939 2.81407 -3.72494 -1.12488 2.50505 -2.69231 -0.919928 2.12982 
-1.84482 -0.804822 1.65935 -1.19448 -0.742249 1.07839 -0.844242 -0.701732 0.414882 
-9.16124 -1.89687 3.78559 -8.6662 -0.987461 3.9454 -8.26951 0.140624 3.98515 
-8.08846 1.46255 4.03029 -8.17115 2.80909 4.05387 -8.4701 4.0275 3.95319 
-8.97401 5.03368 3.826 -9.67752 5.71412 3.68082 -10.4403 6.00731 3.33263 
-23.2661 -16.7017 -2.35882 -22.6671 -16.1188 -2.26711 -21.9942 -15.3517 -2.13677 
-21.238 -14.3649 -1.9784 -20.3221 -13.2248 -1.72177 -19.2601 -12.0387 -1.39604 
-18.1554 -10.8634 -1.1534 -16.9979 -9.79848 -1.03167 -15.7303 -8.96352 -0.976161 
-23.9406 -16.3359 -2.04582 -24.0938 -15.3314 -1.67828 -24.2013 -14.1396 -1.27598 
-24.1944 -12.8057 -0.820689 -24.0114 -11.3601 -0.319544 -23.6393 -9.83319 0.205315 
-23.1679 -8.30397 0.727999 -22.7186 -6.90708 1.21205 -22.3 -5.71221 1.6303 
-23.9424 -18.6369 -2.98192 -24.0026 -20.2276 -3.66761 -23.9084 -21.8461 -4.37752 
-23.6673 -23.4086 -5.0788 -23.3497 -24.8303 -5.8416 -23.0122 -26.0476 -6.64875 
-22.6374 -27.0547 -7.40869 -22.2079 -27.8462 -8.16895 -21.815 -28.2974 -8.95708 
-24.3828 -18.386 -2.75688 -24.9972 -19.5939 -3.19361 -25.599 -20.6496 -3.68485 
-26.175 -21.51 -4.1659 -26.6949 -22.1359 -4.63757 -27.1186 -22.473 -5.14271 
-27.4771 -22.6024 -5.63413 -27.8143 -22.6601 -6.06006 -28.091 -22.5696 -6.43486 
-13.1328 -7.04309 -3.8923 -13.0811 -7.38326 -3.67032 -13.1247 -7.70193 -3.38204 
-13.1642 -7.96891 -3.09598 -13.1472 -8.2354 -2.79113 -13.1717 -8.44363 -2.39 
-13.3687 -8.50135 -1.93516 -13.7078 -8.46603 -1.53722 -14.0707 -8.42395 -1.2264 
-15.5237 -7.90676 -4.0762 -17.6295 -9.98902 -4.57542 -19.1759 -12.8078 -5.38872 
-20.23 -15.7549 -6.20105 -21.0176 -18.5462 -6.97731 -21.4677 -21.1909 -7.80188 
-21.6138 -23.5753 -8.5861 -21.632 -25.5903 -9.21508 -21.5926 -27.1815 -9.5854 
-11.1936 -6.37865 -4.13276 -9.37619 -6.1587 -4.14608 -7.84387 -5.71493 -3.87702 
-6.39144 -5.05698 -3.40804 -5.06548 -4.35499 -2.87982 -3.95048 -3.59689 -2.34345 
-2.93752 -2.82888 -1.84435 -1.99777 -2.11798 -1.36093 -1.26387 -1.40588 -0.822755 
-16.0572 -9.43752 -1.4064 -17.551 -11.0468 -2.01576 -18.7607 -13.1707 -2.78558 
-19.7066 -15.5486 -3.63393 -20.4584 -17.9645 -4.52166 -21.0821 -20.439 -5.48479 
-21.5632 -22.9573 -6.57506 -21.7759 -25.2591 -7.74397 -21.7126 -27.0619 -8.80684 
-12.3483 -7.74501 -0.756289 -10.0734 -7.36917 -0.503548 -7.83716 -7.10361 -0.174427 
-5.86136 -6.73089 0.0741554 -4.25728 -6.12155 0.104486 -3.07662 -5.26896 0.0278413 
-2.2448 -4.2087 -0.0341468 -1.58874 -3.0243 -0.100041 -1.08796 -1.82983 -0.176658 
-21.9917 -3.31971 -1.71461 -22.2187 -3.20432 -1.33232 -22.4143 -3.08302 -0.891463 
-22.5439 -2.98564 -0.322954 -22.5838 -2.97393 0.35424 -22.523 -3.08372 0.963844 
-22.3818 -3.34848 1.40994 -22.2222 -3.76915 1.7216 -22.0619 -4.24541 1.90555 
-22.8369 -4.69225 -2.35281 -23.97 -6.12096 -2.70207 -25.0884 -7.72863 -3.15406 
-26.1619 -9.57016 -3.68605 -27.1957 -11.4331 -4.16014 -28.0091 -13.153 -4.58409 
-28.3607 -15.1975 -5.12783 -28.3694 -17.8077 -5.79209 -28.318 -20.3331 -6.37705 
-20.8187 -2.22507 -1.51239 -19.7806 -1.06605 -0.914292 -18.6352 0.0472869 -0.325578 
-17.4714 1.19139 0.205071 -16.3502 2.35137 0.746351 -15.2049 3.3935 1.2661 
-14.0662 4.25202 1.65565 -13.0506 4.97827 1.99656 -12.0983 5.58533 2.39071 
-22.957 -5.75277 1.37664 -23.981 -7.09844 0.58664 -25.0517 -8.79935 -0.334746 
-26.2881 -10.7443 -1.15647 -27.4508 -12.6709 -1.82423 -28.1816 -14.5346 -2.57744 
-28.4004 -16.5242 -3.57733 -28.3229 -18.6494 -4.72162 -28.2439 -20.6147 -5.8172 
-20.8285 -3.38307 2.49461 -19.8104 -1.99787 3.03773 -18.8934 -0.625023 3.51245 
-17.8583 0.655343 3.80664 -16.5812 1.90109 3.92031 -15.2692 3.10676 3.89855 
-14.0359 4.15766 3.76617 -12.9013 4.99867 3.5439 -11.9331 5.61376 3.21237 
-21.7516 -29.2336 -9.87508 -22.3944 -29.8429 -9.97667 -23.5614 -30.0108 -10.0222 
-24.8003 -29.6999 -9.96658 -25.6641 -28.9695 -9.67491 -26.3046 -27.8588 -9.15065 
-27.0419 -26.4552 -8.52894 -27.7467 -25.0244 -7.93136 -28.1449 -23.6598 -7.36481 
-0.862399 0.473559 0.105151 -1.25317 1.67128 0.466328 -1.97461 2.77282 0.80687 
-2.90891 3.7748 1.12686 -3.95311 4.73295 1.44386 -5.09709 5.52339 1.73547 
-6.48731 6.00547 2.00885 -8.13444 6.22936 2.30868 -9.74728 6.23378 2.58982 
-11.5696 -0.541261 -3.25736 -11.49 -1.16434 -3.6217 -12.8701 -1.50915 -3.48762 
-11.4957 -1.98763 -3.91901 -12.9056 -2.20846 -3.8024 -14.4724 -2.64084 -3.6741 
-11.6939 -2.97274 -4.17222 -13.1264 -3.16811 -4.00601 -14.7768 -3.53385 -3.86854 
-16.5742 -4.18924 -3.89341 -12.0949 -3.89224 -4.41306 -13.6278 -4.17814 -4.17572 
-15.3351 -4.66469 -4.00606 -17.2231 -5.40548 -4.0912 -18.9333 -6.31193 -4.36654 
-12.611 -4.72086 -4.52052 -14.3444 -5.03211 -4.32617 -16.1118 -5.73432 -4.2077 
-17.9661 -6.75011 -4.36829 -19.6541 -7.829 -4.74001 -20.9364 -8.78108 -5.10461 
-13.2432 -5.57262 -4.39967 -15.1648 -5.95415 -4.34493 -16.9847 -6.81279 -4.43055 
-18.687 -8.0593 -4.75414 -20.2186 -9.35286 -5.22195 -21.418 -10.4235 -5.62397 
-22.3381 -11.2469 -5.88763 -14.064 -6.40912 -4.18995 -16.0359 -7.05825 -4.28632 
-17.833 -8.1539 -4.61592 -19.3334 -9.52315 -5.13714 -20.6259 -10.8791 -5.70328 
-21.69 -12.0094 -6.15612 -22.5511 -12.8808 -6.43376 -23.311 -13.5357 -6.59678 
-9.20616 0.762761 -3.04486 -7.87294 1.0531 -2.9408 -8.92485 0.0435126 -3.29512 
-6.51263 1.17231 -2.74388 -7.52774 0.179005 -3.14145 -8.75277 -0.840447 -3.53759 
-5.1733 1.13334 -2.50625 -6.19685 0.167988 -2.94852 -7.35592 -0.838229 -3.39809 
-8.74354 -1.79841 -3.84241 -3.92941 0.926017 -2.22326 -4.94265 0.0306156 -2.69259 
-6.09732 -0.973917 -3.22775 -7.38172 -1.85905 -3.69961 -8.91355 -2.77313 -4.15281 
-2.9028 0.512375 -1.90285 -3.80234 -0.30023 -2.37022 -4.9633 -1.25171 -2.9562 
-6.22497 -2.11762 -3.46504 -7.64666 -2.91135 -3.9051 -9.23442 -3.84023 -4.36236 
-2.12249 -0.0778414 -1.5772 -2.92019 -0.847326 -2.05078 -3.99478 -1.70633 -2.61331 
-5.24336 -2.55784 -3.14557 -6.63644 -3.28835 -3.56867 -8.12108 -4.11466 -4.04649 
-9.6714 -4.93431 -4.43368 -1.56724 -0.745324 -1.22467 -2.34107 -1.49048 -1.72956 
-3.32626 -2.271 -2.24221 -4.45648 -3.09273 -2.7713 -5.76795 -3.82332 -3.23732 
-7.22765 -4.55273 -3.70762 -8.68269 -5.29684 -4.16825 -10.2891 -5.79935 -4.3461 
-1.64898 -2.57949 -0.784643 -2.24009 -3.79009 -0.734657 -2.52761 -3.28649 -1.33482 
-2.9361 -4.97556 -0.690755 -3.17904 -4.48805 -1.31157 -3.54845 -4.01118 -1.8394 
-3.86627 -6.04097 -0.589808 -3.93788 -5.69845 -1.30095 -4.2498 -5.2426 -1.89918 
-4.59174 -4.81012 -2.42963 -5.23832 -6.85504 -0.463395 -4.99978 -6.78864 -1.2033 
-5.11412 -6.484 -1.96878 -5.3616 -6.06191 -2.61383 -5.76873 -5.58824 -3.08963 
[...]
POINT_DATA 1002
FIELD FieldData 4
_paraPhi 1 1002 double
6.2831853072 3.1415926536 6.2831853072 3.1415926536 4.7123889804 4.7123889804 1.5707963268 1.5707963268 3.6951670125 
5.7296109483 2.5880182947 0.5535743589 6.2831853072 6.2831853072 6.2831853072 6.2831853072 3.1415926536 3.1415926536 
3.1415926536 3.1415926536 3.1415926536 6.1053039672 5.898798347 5.6768734901 5.4599499503 5.2659633393 5.1032165617 
4.9713148346 4.8656852733 4.7809517865 0.17788134 0.38438696014 0.60631181711 0.82323535693 1.0172219679 1.1799687454 
1.3118704726 1.4175000338 1.5022335207 6.1892828907 6.1070320098 6.035312792 5.9728339911 5.9183214791 5.8706119594 
5.8286879411 5.7916808611 5.7588591896 0.093902416448 0.17615329733 0.2478725152 0.31035131605 0.36486382811 0.41257334776 
0.45449736604 0.4915044461 0.52432611754 3.3194739936 3.5259796137 3.7479044707 3.9648280105 4.1588146215 4.321561399 
4.4534631262 4.5590926874 4.6438261743 2.9637113136 2.7572056934 2.5352808365 2.3183572967 2.1243706857 1.9616239082 
1.829722181 1.7240926197 1.6393591329 3.23549507 3.3177459509 3.3894651688 3.4519439696 3.5064564817 3.5541660013 
3.5960900196 3.6330970997 3.6659187711 3.0476902371 2.9654393563 2.8937201384 2.8312413375 2.7767288255 2.7290193058 
2.6870952876 2.6500882075 2.617266536 6.2831853072 6.2831853072 6.2831853072 6.2831853072 3.1415926536 3.1415926536 
3.1415926536 3.1415926536 3.1415926536 6.1053039672 5.898798347 5.6768734901 5.4599499503 5.2659633393 5.1032165617 
4.9713148346 4.8656852733 4.7809517865 0.17788134 0.38438696014 0.60631181711 0.82323535693 1.0172219679 1.1799687454 
1.3118704726 1.4175000338 1.5022335207 6.1892828907 6.1070320098 6.035312792 5.9728339911 5.9183214791 5.8706119594 
5.8286879411 5.7916808611 5.7588591896 0.093902416448 0.17615329733 0.2478725152 0.31035131605 0.36486382811 0.41257334776 
0.45449736604 0.4915044461 0.52432611754 3.3194739936 3.5259796137 3.7479044707 3.9648280105 4.1588146215 4.321561399 
4.4534631262 4.5590926874 4.6438261743 2.9637113136 2.7572056934 2.5352808365 2.3183572967 2.1243706857 1.9616239082 
1.829722181 1.7240926197 1.6393591329 3.23549507 3.3177459509 3.3894651688 3.4519439696 3.5064564817 3.5541660013 
3.5960900196 3.6330970997 3.6659187711 3.0476902371 2.9654393563 2.8937201384 2.8312413375 2.7767288255 2.7290193058 
2.6870952876 2.6500882075 2.617266536 4.7123889804 4.7123889804 4.7123889804 4.7123889804 4.7123889804 4.7123889804 
4.7123889804 4.7123889804 4.7123889804 4.6087898617 4.4991390697 4.3857031936 4.2712800401 4.1588146215 4.0509635631 
3.94975894 3.8564636551 3.7716124825 4.8159880991 4.9256388911 5.0390747672 5.1534979207 5.2659633393 5.3738143976 
5.4750190208 5.5683143056 5.6531654782 4.6087898617 4.4991390697 4.3857031936 4.2712800401 4.1588146215 4.0509635631 
3.94975894 3.8564636551 3.7716124825 4.8159880991 4.9256388911 5.0390747672 5.1534979207 5.2659633393 5.3738143976 
5.4750190208 5.5683143056 5.6531654782 1.5707963268 1.5707963268 1.5707963268 1.5707963268 1.5707963268 1.5707963268 
1.5707963268 1.5707963268 1.5707963268 1.6743954455 1.7840462375 1.8974821136 2.0119052671 2.1243706857 2.232221744 
2.3334263672 2.426721652 2.5115728246 1.4671972081 1.3575464161 1.24411054 1.1296873865 1.0172219679 0.90937090954 
0.80816628637 0.71487100155 0.63001982895 1.6743954455 1.7840462375 1.8974821136 2.0119052671 2.1243706857 2.232221744 
2.3334263672 2.426721652 2.5115728246 1.4671972081 1.3575464161 1.24411054 1.1296873865 1.0172219679 0.90937090954 
0.80816628637 0.71487100155 0.63001982895 3.6007720849 3.4966939854 3.3839471039 3.2645756454 3.1415926536 3.0186096618 
2.8992382033 2.7864913217 2.6824132222 5.8240058758 5.9280839753 6.0408308569 6.1602023154 6.2831853072 0.12298299178 
0.2423544503 0.35510133185 0.45917943135 6.0560271438 5.7885595667 5.9702140275 5.5125918794 5.6029703303 5.7885595667 
5.2659633393 5.2659633393 5.2659633393 5.2659633393 5.0674903122 5.0120975802 4.9155579264 4.7123889804 4.1588146215 
4.9155579264 4.8353719722 4.7123889804 4.5092200343 4.1588146215 3.6362183941 4.8004512023 4.7123889804 4.5894059886 
4.4126803806 4.1588146215 3.8218076305 3.4545639333 4.7123889804 4.6243267584 4.5092200343 4.3572876485 4.1588146215 
3.9121860814 3.6362183941 3.368750817 6.0174235957 5.9434319871 5.8263323547 5.8809213739 5.7674481418 5.6279784266 
5.8278025282 5.718968232 5.5891129425 5.4372443565 5.7823484065 5.678536687 5.5575666702 5.4192596322 5.2659633393 
5.743164462 5.6444075337 5.5314983644 5.4046708639 5.2659633393 5.1195510325 5.7091357773 5.6152775188 5.5096229709 
5.3926039573 5.2659633393 5.1329233157 4.9978930058 5.6793730533 5.5901633916 5.4910209005 5.3824597928 5.2659633393 
5.1440684722 5.0201624502 4.8979782167 5.5683143056 5.4750190208 5.4750190208 5.3738143976 5.3738143976 5.3738143976 
5.2659633393 5.2659633393 5.2659633393 5.2659633393 5.1534979207 5.1534979207 5.1534979207 5.1534979207 5.1534979207 
5.0390747672 5.0390747672 5.0390747672 5.0390747672 5.0390747672 5.0390747672 4.9256388911 4.9256388911 4.9256388911 
4.9256388911 4.9256388911 4.9256388911 4.9256388911 4.8159880991 4.8159880991 4.8159880991 4.8159880991 4.8159880991 
4.8159880991 4.8159880991 4.8159880991 4.6087898617 4.6087898617 4.4991390697 4.6087898617 4.4991390697 4.3857031936 
4.6087898617 4.4991390697 4.3857031936 4.2712800401 4.6087898617 4.4991390697 4.3857031936 4.2712800401 4.1588146215 
4.6087898617 4.4991390697 4.3857031936 4.2712800401 4.1588146215 4.0509635631 4.6087898617 4.4991390697 4.3857031936 
4.2712800401 4.1588146215 4.0509635631 3.94975894 4.6087898617 4.4991390697 4.3857031936 4.2712800401 4.1588146215 
4.0509635631 3.94975894 3.8564636551 4.526799744 4.4046155105 4.426884955 4.2807094886 4.2918546451 4.3052269283 
4.1588146215 4.1588146215 4.1588146215 4.1588146215 4.042318168 4.0321740035 4.0201070968 4.0055183285 3.9875336042 
3.9337570603 3.9151549899 3.8932795963 3.8672112905 3.8356650183 3.7967995342 3.8346145692 3.809500442 3.7803704271 
3.7462412737 3.7058097288 3.657329819 3.5984456061 3.7454049075 3.7156421835 3.6816134988 3.6424295543 3.5969754326 
3.5438565869 3.4813459737 3.4073543651 3.5642842451 3.4524645613 3.5233842518 3.3320300872 3.403123212 3.4773852225 
3.20576226 3.2746326772 3.348015857 3.4255060145 3.0774230472 3.1415926536 3.2112816139 3.2864685043 3.3668817272 
2.95115522 3.00855263 3.0719036933 3.1415926536 3.2178377658 3.3005964304 2.8307207459 2.8800620952 2.9351694502 
2.9967168029 3.0653475414 3.1415926536 3.225752376 2.718901062 2.7598010554 2.8058000847 2.8576792927 2.91630358 
2.9825888767 3.0574329311 3.1415926536 3.5642842451 3.5233842518 3.4524645613 3.4773852225 3.403123212 3.3320300872 
3.4255060145 3.348015857 3.2746326772 3.20576226 3.3668817272 3.2864685043 3.2112816139 3.1415926536 3.0774230472 
3.3005964304 3.2178377658 3.1415926536 3.0719036933 3.00855263 2.95115522 3.225752376 3.1415926536 3.0653475414 
2.9967168029 2.9351694502 2.8800620952 2.8307207459 3.1415926536 3.0574329311 2.9825888767 2.91630358 2.8576792927 
2.8058000847 2.7598010554 2.718901062 4.526799744 4.426884955 4.4046155105 4.3052269283 4.2918546451 4.2807094886 
4.1588146215 4.1588146215 4.1588146215 4.1588146215 3.9875336042 4.0055183285 4.0201070968 4.0321740035 4.042318168 
3.7967995342 3.8356650183 3.8672112905 3.8932795963 3.9151549899 3.9337570603 3.5984456061 3.657329819 3.7058097288 
3.7462412737 3.7803704271 3.809500442 3.8346145692 3.4073543651 3.4813459737 3.5438565869 3.5969754326 3.6424295543 
3.6816134988 3.7156421835 3.7454049075 4.7123889804 4.8004512023 4.6243267584 4.9155579264 4.7123889804 4.5092200343 
5.0674903122 4.8353719722 4.5894059886 4.3572876485 5.2659633393 5.0120975802 4.7123889804 4.4126803806 4.1588146215 
5.5125918794 5.2659633393 4.9155579264 4.5092200343 4.1588146215 3.9121860814 5.7885595667 5.6029703303 5.2659633393 
4.7123889804 4.1588146215 3.8218076305 3.6362183941 6.0560271438 5.9702140275 5.7885595667 5.2659633393 4.1588146215 
3.6362183941 3.4545639333 3.368750817 0.22715816343 0.49462574053 0.3129712797 0.77059342779 0.68021497688 0.49462574053 
1.0172219679 1.0172219679 1.0172219679 1.0172219679 1.2156949949 1.271087727 1.3676273807 1.5707963268 2.1243706857 
1.3676273807 1.447813335 1.5707963268 1.7739652728 2.1243706857 2.6469669131 1.4827341049 1.5707963268 1.6937793186 
1.8705049266 2.1243706857 2.4613776767 2.8286213739 1.5707963268 1.6588585487 1.7739652728 1.9258976586 2.1243706857 
2.3709992258 2.6469669131 2.9144344902 1.7563855631 1.8785697967 1.8563003522 2.0024758186 1.9913306621 1.9779583789 
2.1243706857 2.1243706857 2.1243706857 2.1243706857 2.2408671392 2.2510113037 2.2630782103 2.2776669786 2.295651703 
2.3494282469 2.3680303173 2.3899057108 2.4159740166 2.4475202889 2.486385773 2.448570738 2.4736848652 2.5028148801 
2.5369440334 2.5773755784 2.6258554882 2.6847397011 2.5377803997 2.5675431237 2.6015718084 2.6407557529 2.6862098746 
2.7393287203 2.8018393335 2.8758309421 1.6743954455 1.6743954455 1.7840462375 1.6743954455 1.7840462375 1.8974821136 
1.6743954455 1.7840462375 1.8974821136 2.0119052671 1.6743954455 1.7840462375 1.8974821136 2.0119052671 2.1243706857 
1.6743954455 1.7840462375 1.8974821136 2.0119052671 2.1243706857 2.232221744 1.6743954455 1.7840462375 1.8974821136 
2.0119052671 2.1243706857 2.232221744 2.3334263672 1.6743954455 1.7840462375 1.8974821136 2.0119052671 2.1243706857 
2.232221744 2.3334263672 2.426721652 1.4671972081 1.3575464161 1.4671972081 1.24411054 1.3575464161 1.4671972081 
1.1296873865 1.24411054 1.3575464161 1.4671972081 1.0172219679 1.1296873865 1.24411054 1.3575464161 1.4671972081 
0.90937090954 1.0172219679 1.1296873865 1.24411054 1.3575464161 1.4671972081 0.80816628637 0.90937090954 1.0172219679 
1.1296873865 1.24411054 1.3575464161 1.4671972081 0.71487100155 0.80816628637 0.90937090954 1.0172219679 1.1296873865 
1.24411054 1.3575464161 1.4671972081 0.60381225391 0.57404952988 0.69302191562 0.54002084522 0.66790778838 0.79216440667 
0.50083690068 0.63877777351 0.77356233629 0.90072551443 0.45538277901 0.60464862014 0.75168694275 0.89058134991 1.0172219679 
0.40226393329 0.56421707518 0.72561863695 0.87851444325 1.0172219679 1.139116835 0.33975332011 0.51573716537 0.69407236469 
0.86392567495 1.0172219679 1.1502619915 1.2630228569 0.26576171152 0.45685295248 0.6552068806 0.84594095064 1.0172219679 
1.1636342747 1.2852923014 1.3852070904 0.22715816343 0.3129712797 0.49462574053 0.49462574053 0.68021497688 0.77059342779 
1.0172219679 1.0172219679 1.0172219679 1.0172219679 2.1243706857 1.5707963268 1.3676273807 1.271087727 1.2156949949 
2.6469669131 2.1243706857 1.7739652728 1.5707963268 1.447813335 1.3676273807 2.8286213739 2.4613776767 2.1243706857 
1.8705049266 1.6937793186 1.5707963268 1.4827341049 2.9144344902 2.6469669131 2.3709992258 2.1243706857 1.9258976586 
1.7739652728 1.6588585487 1.5707963268 1.7563855631 1.8563003522 1.8785697967 1.9779583789 1.9913306621 2.0024758186 
2.1243706857 2.1243706857 2.1243706857 2.1243706857 2.295651703 2.2776669786 2.2630782103 2.2510113037 2.2408671392 
2.486385773 2.4475202889 2.4159740166 2.3899057108 2.3680303173 2.3494282469 2.6847397011 2.6258554882 2.5773755784 
2.5369440334 2.5028148801 2.4736848652 2.448570738 2.8758309421 2.8018393335 2.7393287203 2.6862098746 2.6407557529 
2.6015718084 2.5675431237 2.5377803997 5.8604937156 5.901393709 5.9723133995 5.9473927383 6.0216547488 6.0927478736 
5.9992719463 6.0767621038 6.1501452836 6.2190157008 6.0578962336 6.1383094565 6.2134963469 0 0.064169606361 
6.1241815303 6.206940195 6.2831853072 0.069688960264 0.13304002361 0.19043743361 6.1990255847 0 0.07624511221 
0.14487585072 0.20642320337 0.26153055843 0.3108719077 0 0.084159722458 0.15900377685 0.22528907359 0.28391336087 
0.3357925689 0.38179159818 0.42269159155 5.8604937156 5.9723133995 5.901393709 6.0927478736 6.0216547488 5.9473927383 
6.2190157008 6.1501452836 6.0767621038 5.9992719463 0.064169606361 0 6.2134963469 6.1383094565 6.0578962336 
0.19043743361 0.13304002361 0.069688960264 6.2831853072 6.206940195 6.1241815303 0.3108719077 0.26153055843 0.20642320337 
0.14487585072 0.07624511221 6.2831853072 6.1990255847 0.42269159155 0.38179159818 0.3357925689 0.28391336087 0.22528907359 
0.15900377685 0.084159722458 0 5.6793730533 5.7091357773 5.5901633916 5.743164462 5.6152775188 5.4910209005 
5.7823484065 5.6444075337 5.5096229709 5.3824597928 5.8278025282 5.678536687 5.5314983644 5.3926039573 5.2659633393 
5.8809213739 5.718968232 5.5575666702 5.4046708639 5.2659633393 5.1440684722 5.9434319871 5.7674481418 5.5891129425 
5.4192596322 5.2659633393 5.1329233157 5.0201624502 6.0174235957 5.8263323547 5.6279784266 5.4372443565 5.2659633393 
5.1195510325 4.9978930058 4.8979782167 1.3852070904 1.2852923014 1.2630228569 1.1636342747 1.1502619915 1.139116835 
1.0172219679 1.0172219679 1.0172219679 1.0172219679 0.84594095064 0.86392567495 0.87851444325 0.89058134991 0.90072551443 
0.6552068806 0.69407236469 0.72561863695 0.75168694275 0.77356233629 0.79216440667 0.45685295248 0.51573716537 0.56421707518 
0.60464862014 0.63877777351 0.66790778838 0.69302191562 0.26576171152 0.33975332011 0.40226393329 0.45538277901 0.50083690068 
0.54002084522 0.57404952988 0.60381225391 
_paraPhiHalf 1 1002 double
0 3.1415926536 0 3.1415926536 1.5707963268 1.5707963268 1.5707963268 1.5707963268 2.5880182947 
0.5535743589 2.5880182947 0.5535743589 0 0 0 0 3.1415926536 3.1415926536 
3.1415926536 3.1415926536 3.1415926536 0.17788134 0.38438696014 0.60631181711 0.82323535693 1.0172219679 1.1799687454 
1.3118704726 1.4175000338 1.5022335207 0.17788134 0.38438696014 0.60631181711 0.82323535693 1.0172219679 1.1799687454 
1.3118704726 1.4175000338 1.5022335207 0.093902416448 0.17615329733 0.2478725152 0.31035131605 0.36486382811 0.41257334776 
0.45449736604 0.4915044461 0.52432611754 0.093902416448 0.17615329733 0.2478725152 0.31035131605 0.36486382811 0.41257334776 
0.45449736604 0.4915044461 0.52432611754 2.9637113136 2.7572056934 2.5352808365 2.3183572967 2.1243706857 1.9616239082 
1.829722181 1.7240926197 1.6393591329 2.9637113136 2.7572056934 2.5352808365 2.3183572967 2.1243706857 1.9616239082 
1.829722181 1.7240926197 1.6393591329 3.0476902371 2.9654393563 2.8937201384 2.8312413375 2.7767288255 2.7290193058 
2.6870952876 2.6500882075 2.617266536 3.0476902371 2.9654393563 2.8937201384 2.8312413375 2.7767288255 2.7290193058 
2.6870952876 2.6500882075 2.617266536 0 0 0 0 3.1415926536 3.1415926536 
3.1415926536 3.1415926536 3.1415926536 0.17788134 0.38438696014 0.60631181711 0.82323535693 1.0172219679 1.1799687454 
1.3118704726 1.4175000338 1.5022335207 0.17788134 0.38438696014 0.60631181711 0.82323535693 1.0172219679 1.1799687454 
1.3118704726 1.4175000338 1.5022335207 0.093902416448 0.17615329733 0.2478725152 0.31035131605 0.36486382811 0.41257334776 
0.45449736604 0.4915044461 0.52432611754 0.093902416448 0.17615329733 0.2478725152 0.31035131605 0.36486382811 0.41257334776 
0.45449736604 0.4915044461 0.52432611754 2.9637113136 2.7572056934 2.5352808365 2.3183572967 2.1243706857 1.9616239082 
1.829722181 1.7240926197 1.6393591329 2.9637113136 2.7572056934 2.5352808365 2.3183572967 2.1243706857 1.9616239082 
1.829722181 1.7240926197 1.6393591329 3.0476902371 2.9654393563 2.8937201384 2.8312413375 2.7767288255 2.7290193058 
2.6870952876 2.6500882075 2.617266536 3.0476902371 2.9654393563 2.8937201384 2.8312413375 2.7767288255 2.7290193058 
2.6870952876 2.6500882075 2.617266536 1.5707963268 1.5707963268 1.5707963268 1.5707963268 1.5707963268 1.5707963268 
1.5707963268 1.5707963268 1.5707963268 1.6743954455 1.7840462375 1.8974821136 2.0119052671 2.1243706857 2.232221744 
2.3334263672 2.426721652 2.5115728246 1.4671972081 1.3575464161 1.24411054 1.1296873865 1.0172219679 0.90937090954 
0.80816628637 0.71487100155 0.63001982895 1.6743954455 1.7840462375 1.8974821136 2.0119052671 2.1243706857 2.232221744 
2.3334263672 2.426721652 2.5115728246 1.4671972081 1.3575464161 1.24411054 1.1296873865 1.0172219679 0.90937090954 
0.80816628637 0.71487100155 0.63001982895 1.5707963268 1.5707963268 1.5707963268 1.5707963268 1.5707963268 1.5707963268 
1.5707963268 1.5707963268 1.5707963268 1.6743954455 1.7840462375 1.8974821136 2.0119052671 2.1243706857 2.232221744 
2.3334263672 2.426721652 2.5115728246 1.4671972081 1.3575464161 1.24411054 1.1296873865 1.0172219679 0.90937090954 
0.80816628637 0.71487100155 0.63001982895 1.6743954455 1.7840462375 1.8974821136 2.0119052671 2.1243706857 2.232221744 
2.3334263672 2.426721652 2.5115728246 1.4671972081 1.3575464161 1.24411054 1.1296873865 1.0172219679 0.90937090954 
0.80816628637 0.71487100155 0.63001982895 2.6824132222 2.7864913217 2.8992382033 3.0186096618 3.1415926536 3.0186096618 
2.8992382033 2.7864913217 2.6824132222 0.45917943135 0.35510133185 0.2423544503 0.12298299178 0 0.12298299178 
0.2423544503 0.35510133185 0.45917943135 0.22715816343 0.49462574053 0.3129712797 0.77059342779 0.68021497688 0.49462574053 
1.0172219679 1.0172219679 1.0172219679 1.0172219679 1.2156949949 1.271087727 1.3676273807 1.5707963268 2.1243706857 
1.3676273807 1.447813335 1.5707963268 1.7739652728 2.1243706857 2.6469669131 1.4827341049 1.5707963268 1.6937793186 
1.8705049266 2.1243706857 2.4613776767 2.8286213739 1.5707963268 1.6588585487 1.7739652728 1.9258976586 2.1243706857 
2.3709992258 2.6469669131 2.9144344902 0.26576171152 0.33975332011 0.45685295248 0.40226393329 0.51573716537 0.6552068806 
0.45538277901 0.56421707518 0.69407236469 0.84594095064 0.50083690068 0.60464862014 0.72561863695 0.86392567495 1.0172219679 
0.54002084522 0.63877777351 0.75168694275 0.87851444325 1.0172219679 1.1636342747 0.57404952988 0.66790778838 0.77356233629 
0.89058134991 1.0172219679 1.1502619915 1.2852923014 0.60381225391 0.69302191562 0.79216440667 0.90072551443 1.0172219679 
1.139116835 1.2630228569 1.3852070904 0.71487100155 0.80816628637 0.80816628637 0.90937090954 0.90937090954 0.90937090954 
1.0172219679 1.0172219679 1.0172219679 1.0172219679 1.1296873865 1.1296873865 1.1296873865 1.1296873865 1.1296873865 
1.24411054 1.24411054 1.24411054 1.24411054 1.24411054 1.24411054 1.3575464161 1.3575464161 1.3575464161 
1.3575464161 1.3575464161 1.3575464161 1.3575464161 1.4671972081 1.4671972081 1.4671972081 1.4671972081 1.4671972081 
1.4671972081 1.4671972081 1.4671972081 1.6743954455 1.6743954455 1.7840462375 1.6743954455 1.7840462375 1.8974821136 
1.6743954455 1.7840462375 1.8974821136 2.0119052671 1.6743954455 1.7840462375 1.8974821136 2.0119052671 2.1243706857 
1.6743954455 1.7840462375 1.8974821136 2.0119052671 2.1243706857 2.232221744 1.6743954455 1.7840462375 1.8974821136 
2.0119052671 2.1243706857 2.232221744 2.3334263672 1.6743954455 1.7840462375 1.8974821136 2.0119052671 2.1243706857 
2.232221744 2.3334263672 2.426721652 1.7563855631 1.8785697967 1.8563003522 2.0024758186 1.9913306621 1.9779583789 
2.1243706857 2.1243706857 2.1243706857 2.1243706857 2.2408671392 2.2510113037 2.2630782103 2.2776669786 2.295651703 
2.3494282469 2.3680303173 2.3899057108 2.4159740166 2.4475202889 2.486385773 2.448570738 2.4736848652 2.5028148801 
2.5369440334 2.5773755784 2.6258554882 2.6847397011 2.5377803997 2.5675431237 2.6015718084 2.6407557529 2.6862098746 
2.7393287203 2.8018393335 2.8758309421 2.718901062 2.8307207459 2.7598010554 2.95115522 2.8800620952 2.8058000847 
3.0774230472 3.00855263 2.9351694502 2.8576792927 3.0774230472 3.1415926536 3.0719036933 2.9967168029 2.91630358 
2.95115522 3.00855263 3.0719036933 3.1415926536 3.0653475414 2.9825888767 2.8307207459 2.8800620952 2.9351694502 
2.9967168029 3.0653475414 3.1415926536 3.0574329311 2.718901062 2.7598010554 2.8058000847 2.8576792927 2.91630358 
2.9825888767 3.0574329311 3.1415926536 2.718901062 2.7598010554 2.8307207459 2.8058000847 2.8800620952 2.95115522 
2.8576792927 2.9351694502 3.00855263 3.0774230472 2.91630358 2.9967168029 3.0719036933 3.1415926536 3.0774230472 
2.9825888767 3.0653475414 3.1415926536 3.0719036933 3.00855263 2.95115522 3.0574329311 3.1415926536 3.0653475414 