# vtk DataFile Version 5.1
vtk output
ASCII
DATASET POLYDATA
POINTS 1002 float
-9.26078 1.48073 -2.55619 -21.8616 -13.5864 -7.54827 -9.14527 -2.06652 3.34357 
-21.6303 -14.733 -3.03505 -12.3221 -5.49266 -3.6967 -12.9749 -6.87656 -1.0491 
-19.8705 -2.46823 -2.57407 -19.9504 -3.33107 1.05394 -18.7184 -24.8365 -8.95209 
-0.697039 -0.388814 0.111287 -25.4984 -19.2858 -6.99321 -9.99635 5.98494 2.34287 
-10.2733 0.746311 -2.79488 -11.4429 -0.114245 -3.05872 -12.8545 -1.13956 -3.30371 
-14.6494 -2.40848 -3.62233 -16.6644 -4.03528 -4.18108 -18.4409 -6.00063 -4.95407 
-19.7679 -8.0886 -5.75241 -20.7332 -10.1005 -6.45326 -21.4128 -11.949 -7.04133 
-9.04363 1.04498 -2.81319 -8.82943 0.48095 -3.07261 -8.65991 -0.232289 -3.27785 
-8.64418 -1.04766 -3.44357 -8.78515 -1.9146 -3.66375 -9.04505 -2.80745 -3.92713 
-9.53347 -3.643 -4.04403 -10.3244 -4.3356 -3.93404 -11.3059 -4.91938 -3.76255 
-10.1219 1.42476 -2.46274 -11.1285 1.32587 -2.40572 -12.2642 1.15157 -2.35974 
-13.4188 0.847713 -2.29704 -14.5605 0.415289 -2.23275 -15.7546 -0.105218 -2.21004 
-16.9513 -0.696379 -2.26284 -18.0426 -1.32445 -2.37507 -19.013 -1.92527 -2.49023 
-8.13705 1.91553 -2.50833 -6.94767 2.27805 -2.44509 -5.77517 2.4537 -2.27603 
-4.6548 2.40606 -1.9727 -3.58015 2.21446 -1.63613 -2.61659 1.91451 -1.36479 
-1.83117 1.47018 -1.10027 -1.22275 0.896475 -0.740533 -0.825297 0.254031 -0.306419 
-8.87318 2.16929 -2.28287 -8.62885 2.89685 -2.00421 -8.52327 3.60487 -1.63987 
-8.49642 4.23643 -1.13569 -8.5726 4.80039 -0.587369 -8.77874 5.32165 -0.082348 
-9.05048 5.75261 0.449383 -9.35784 6.00812 1.07538 -9.69247 6.06851 1.74097 
-21.392 -13.3366 -7.50069 -20.8634 -12.9861 -7.3329 -20.2481 -12.4668 -7.05762 
-19.5357 -11.7057 -6.69315 -18.7942 -10.7333 -6.23186 -17.969 -9.57213 -5.68935 
-16.8152 -8.21864 -5.08717 -15.3061 -6.88989 -4.47396 -13.7296 -5.93667 -3.98037 
-22.0625 -12.7813 -7.19416 -22.1823 -11.8111 -6.77206 -22.181 -10.6631 -6.33509 
-22.0782 -9.37857 -5.85627 -21.8749 -8.00874 -5.31393 -21.5627 -6.62093 -4.75581 
-21.1795 -5.33274 -4.19005 -20.7507 -4.22444 -3.61094 -20.2969 -3.28188 -3.06204 
-21.9196 -15.046 -8.03481 -21.9129 -16.6343 -8.52865 -21.7805 -18.3486 -9.031 
-21.4368 -20.1176 -9.51495 -20.931 -21.782 -9.94269 -20.3551 -23.1938 -10.299 
-19.693 -24.2558 -10.4584 -19.0524 -24.884 -10.23 -18.6984 -25.0522 -9.64952 
-22.3583 -14.6501 -7.84786 -22.8706 -15.6625 -8.14867 -23.3794 -16.6001 -8.39132 
-23.8125 -17.5074 -8.51334 -24.1406 -18.3408 -8.50953 -24.4455 -18.931 -8.40192 
-24.8046 -19.2559 -8.21997 -25.1552 -19.4394 -7.95757 -25.3894 -19.4776 -7.5505 
-10.1829 -2.6682 3.12828 -11.3982 -3.23733 2.75455 -12.8436 -3.8777 2.2344 
-14.5242 -4.78238 1.61419 -16.3489 -6.06072 0.862869 -18.0739 -7.66606 -0.062787 
-19.4368 -9.46013 -1.03748 -20.4099 -11.294 -1.87035 -21.1177 -13.0715 -2.51397 
-8.87777 -2.48317 3.05453 -8.70025 -2.9643 2.71361 -8.66923 -3.53527 2.36563 
-8.82059 -4.12882 1.91035 -9.1498 -4.68508 1.34548 -9.63084 -5.20933 0.839183 
-10.2708 -5.68596 0.389363 -11.092 -6.09421 -0.10785 -12.036 -6.47243 -0.609893 
-10.1138 -2.04768 3.44668 -11.2124 -2.02621 3.46137 -12.4374 -2.01443 3.40293 
-13.7869 -2.05529 3.29115 -15.1254 -2.15762 3.07918 -16.2894 -2.31121 2.74683 
-17.3165 -2.51216 2.34136 -18.2936 -2.74423 1.9007 -19.187 -3.01033 1.46072 
-7.96706 -1.69393 3.33039 -6.80804 -1.33646 3.24961 -5.7468 -1.00885 3.0373 
-4.71056 -0.711859 2.72123 -3.63047 -0.494539 2.42334 -2.63633 -0.404392 2.13158 
-1.83291 -0.396534 1.74362 -1.20081 -0.398742 1.25349 -0.794543 -0.393123 0.695694 
-8.72976 -1.32639 3.50588 -8.3282 -0.352977 3.51377 -8.01668 0.791635 3.46781 
-7.87634 1.96192 3.50312 -7.89374 3.10566 3.55426 -8.04851 4.23443 3.50276 
-8.4042 5.19195 3.39324 -8.94749 5.78028 3.21245 -9.5229 6.00306 2.85286 
-21.1599 -14.4354 -2.93871 -20.6042 -13.9196 -2.85989 -19.9541 -13.1981 -2.743 
-19.2264 -12.3558 -2.52117 -18.4068 -11.3951 -2.23197 -17.4861 -10.2924 -1.92349 
-16.5066 -9.17758 -1.584 -15.4556 -8.2102 -1.28058 -14.271 -7.43804 -1.10977 
-21.8015 -13.8976 -2.81566 -21.958 -12.9434 -2.52032 -22.0566 -11.8599 -2.12975 
-22.0111 -10.6102 -1.67956 -21.7911 -9.25091 -1.19012 -21.4546 -7.91363 -0.646189 
-21.0682 -6.64098 -0.110703 -20.6769 -5.4225 0.336823 -20.3045 -4.30305 0.715265 
-21.7239 -16.2591 -3.46621 -21.6746 -17.8547 -3.93105 -21.4816 -19.3789 -4.46058 
-21.179 -20.783 -5.07931 -20.7992 -22.0989 -5.77084 -20.3936 -23.263 -6.49134 
-19.9616 -24.1558 -7.19296 -19.4523 -24.7186 -7.84934 -18.9697 -24.9353 -8.44922 
-22.1629 -15.855 -3.42061 -22.6949 -16.962 -3.82167 -23.2188 -17.9833 -4.18041 
-23.7055 -18.8429 -4.54204 -24.1157 -19.4533 -5.00205 -24.4694 -19.7664 -5.47056 
-24.8288 -19.8716 -5.82902 -25.1663 -19.8755 -6.17836 -25.394 -19.7175 -6.6021 
-12.1544 -5.76992 -3.59962 -12.0428 -6.08143 -3.46089 -12.0099 -6.31083 -3.18712 
-12.0202 -6.48837 -2.86456 -12.0118 -6.74173 -2.59288 -12.0305 -6.97349 -2.26216 
-12.1725 -7.00489 -1.85267 -12.4233 -6.91661 -1.51556 -12.7046 -6.8702 -1.27431 
-14.1804 -6.52663 -3.9713 -15.8972 -8.3451 -4.59052 -17.2169 -10.8808 -5.39869 
-18.1905 -13.6579 -6.16757 -18.8621 -16.3084 -6.90577 -19.1588 -18.7825 -7.67423 
-19.173 -20.9607 -8.31576 -19.039 -22.672 -8.70682 -18.8331 -23.9344 -8.9008 
-10.3827 -5.12526 -3.61086 -8.56724 -4.9787 -3.58108 -7.01388 -4.68951 -3.37168 
-5.67291 -4.14881 -2.94248 -4.45959 -3.47266 -2.42966 -3.36496 -2.76664 -1.928 
-2.40054 -2.12665 -1.45363 -1.57507 -1.56871 -0.972502 -0.971359 -1.00051 -0.442664 
-14.6324 -7.8383 -1.56106 -15.9794 -9.38006 -2.29358 -16.9484 -11.3862 -3.18508 
-17.7677 -13.5577 -4.02316 -18.5186 -15.784 -4.77059 -19.0106 -18.1346 -5.60831 
-19.1881 -20.4349 -6.55852 -19.1444 -22.3661 -7.46298 -18.9434 -23.8185 -8.24905 
-10.9174 -6.35063 -0.770596 -8.76503 -6.17381 -0.434109 -6.90043 -6.13797 -0.0252321 
-5.3705 -5.88621 0.260766 -4.07981 -5.21302 0.293554 -3.07189 -4.2744 0.228517 
-2.25735 -3.31799 0.206649 -1.50139 -2.37928 0.194143 -0.931205 -1.3978 0.158684 
-20.1228 -2.31195 -2.31636 -20.3713 -2.16704 -2.03646 -20.571 -2.06157 -1.6657 
-20.6875 -1.97233 -1.11302 -20.7238 -1.92213 -0.485674 -20.6786 -2.02267 0.0472106 
-20.5483 -2.29661 0.480279 -20.3661 -2.64236 0.807579 -20.1643 -2.98972 0.984099 
-20.933 -3.54961 -2.95398 -21.9723 -4.84777 -3.41461 -22.9418 -6.36288 -3.9639 
-23.9166 -8.00976 -4.51184 -24.8637 -9.65934 -4.95557 -25.5014 -11.3965 -5.37145 
-25.7095 -13.4716 -5.89401 -25.6928 -15.7621 -6.44461 -25.6217 -17.7891 -6.82954 
-18.9414 -1.38257 -2.04946 -17.9482 -0.279825 -1.45365 -16.9195 0.844123 -0.847824 
-15.8963 1.94281 -0.328098 -14.8725 2.91164 0.186862 -13.8058 3.72597 0.762979 
-12.7553 4.43572 1.25181 -11.8059 5.06126 1.61743 -10.912 5.59293 1.9807 
-20.8856 -4.36255 0.420493 -21.8661 -5.65639 -0.335866 -22.8941 -7.15605 -1.19282 
-23.9056 -8.78119 -2.0479 -24.803 -10.5385 -2.81305 -25.467 -12.4719 -3.54297 
-25.7622 -14.5002 -4.38195 -25.7496 -16.418 -5.3386 -25.6367 -18.0351 -6.25081 
-19.1192 -2.22041 1.61805 -18.2336 -1.09672 2.18233 -17.3382 0.0664335 2.67012 
-16.3666 1.24573 3.00898 -15.2734 2.38372 3.21048 -14.1242 3.43421 3.28102 
-12.9673 4.33381 3.1779 -11.8585 5.0443 2.9413 -10.8725 5.58845 2.6583 
-18.7583 -25.6999 -9.33821 -19.3491 -26.2784 -9.62163 -20.5512 -26.4783 -9.70909 
-21.802 -26.2412 -9.57559 -22.6378 -25.5521 -9.27692 -23.298 -24.5377 -8.88087 
-24.0387 -23.3543 -8.41142 -24.7265 -22.0555 -7.90622 -25.2141 -20.6904 -7.43503 
-0.754247 0.694962 0.428751 -1.11556 1.85171 0.734154 -1.72184 2.91087 0.989681 
-2.56988 3.84891 1.22781 -3.59397 4.72509 1.43775 -4.68095 5.46522 1.5798 
-5.92363 5.99655 1.76741 -7.36702 6.29163 2.05223 -8.78714 6.27837 2.27508 
-10.1509 0.245193 -3.05858 -10.0288 -0.385263 -3.31591 -11.4358 -0.689903 -3.28708 
-9.98755 -1.1215 -3.53987 -11.506 -1.38551 -3.52432 -13.0872 -1.8108 -3.51227 
-10.138 -1.8853 -3.72829 -11.7665 -2.15525 -3.75746 -13.5078 -2.63641 -3.77018 
-15.1907 -3.27247 -3.90583 -10.4715 -2.68587 -3.9058 -12.2729 -2.96089 -3.91502 
-14.1615 -3.60888 -4.03043 -15.871 -4.38058 -4.24461 -17.2983 -5.19073 -4.583 
-11.0044 -3.56168 -4.04413 -12.9536 -3.87396 -4.02574 -14.9665 -4.69119 -4.21383 
-16.6244 -5.69002 -4.5822 -17.8899 -6.58862 -5.00118 -18.9073 -7.38129 -5.42547 
-11.8045 -4.42396 -4.0558 -13.7448 -4.90549 -4.16878 -15.7379 -5.86335 -4.43232 
-17.2915 -7.0371 -4.90818 -18.3787 -8.07534 -5.42544 -19.2467 -8.88689 -5.8819 
-20.0303 -9.54399 -6.24719 -12.7768 -5.19585 -3.98425 -14.5695 -5.93014 -4.32051 
-16.3587 -7.06736 -4.75735 -17.7283 -8.33156 -5.29342 -18.6751 -9.46135 -5.84741 
-19.4582 -10.3613 -6.31624 -20.1817 -11.0351 -6.68881 -20.838 -11.5442 -6.94114 
-7.80541 1.40818 -2.76137 -6.53648 1.63531 -2.65435 -7.5222 0.727022 -2.9758 
-5.35968 1.65036 -2.42539 -6.26643 0.798516 -2.80304 -7.39363 -0.127297 -3.11303 
-4.26894 1.48408 -2.08393 -5.148 0.685928 -2.55553 -6.23402 -0.187711 -2.91611 
-7.47239 -1.10356 -3.2763 -3.25253 1.18459 -1.7441 -4.10645 0.432442 -2.24349 
-5.15993 -0.37387 -2.71616 -6.38363 -1.27047 -3.11566 -7.66719 -2.1392 -3.57078 
-2.39298 0.745199 -1.48239 -3.17161 0.0347307 -1.92515 -4.1501 -0.695892 -2.45671 
-5.33344 -1.50376 -2.93103 -6.65933 -2.38091 -3.39668 -7.99722 -3.12493 -3.84142 
-1.70942 0.199783 -1.21837 -2.42947 -0.469324 -1.64399 -3.32509 -1.15414 -2.13811 
-4.41513 -1.88226 -2.65825 -5.73322 -2.65429 -3.13218 -7.13504 -3.40614 -3.58485 
-8.58168 -3.94364 -3.87654 -1.2101 -0.395788 -0.86131 -1.88841 -1.0086 -1.34223 
-2.75097 -1.64144 -1.80403 -3.76304 -2.34618 -2.30693 -4.97446 -3.06 -2.80807 
-6.34617 -3.7402 -3.27477 -7.78777 -4.2788 -3.62114 -9.40486 -4.58783 -3.73936 
-1.36828 -2.01722 -0.407502 -2.04521 -3.04029 -0.394867 -2.10472 -2.58636 -0.969438 
-2.81203 -4.05629 -0.400144 -2.82822 -3.65293 -0.989797 -3.03775 -3.16292 -1.49089 
-3.68296 -5.06629 -0.347158 -3.62108 -4.74538 -1.00092 -3.823 -4.26654 -1.54448 
-4.11137 -3.83478 -2.00532 -4.83683 -5.9371 -0.265257 -4.56809 -5.81181 -0.956979 
-4.6572 -5.42634 -1.61027 -4.9304 -4.96347 -2.12178 -5.25203 -4.56714 -2.56783 
[...]
POINT_DATA 1002
FIELD FieldData 4
_paraPhi 1 1002 double
6.2831853072 3.1415926536 6.2831853072 3.1415926536 4.7123889804 4.7123889804 1.5707963268 1.5707963268 3.6951670125 
5.7296109483 2.5880182947 0.5535743589 6.2831853072 6.2831853072 6.2831853072 6.2831853072 3.1415926536 3.1415926536 
3.1415926536 3.1415926536 3.1415926536 6.1053039672 5.898798347 5.6768734901 5.4599499503 5.2659633393 5.1032165617 
4.9713148346 4.8656852733 4.7809517865 0.17788134 0.38438696014 0.60631181711 0.82323535693 1.0172219679 1.1799687454 
1.3118704726 1.4175000338 1.5022335207 6.1892828907 6.1070320098 6.035312792 5.9728339911 5.9183214791 5.8706119594 
5.8286879411 5.7916808611 5.7588591896 0.093902416448 0.17615329733 0.2478725152 0.31035131605 0.36486382811 0.41257334776 
0.45449736604 0.4915044461 0.52432611754 3.3194739936 3.5259796137 3.7479044707 3.9648280105 4.1588146215 4.321561399 
4.4534631262 4.5590926874 4.6438261743 2.9637113136 2.7572056934 2.5352808365 2.3183572967 2.1243706857 1.9616239082 
1.829722181 1.7240926197 1.6393591329 3.23549507 3.3177459509 3.3894651688 3.4519439696 3.5064564817 3.5541660013 
3.5960900196 3.6330970997 3.6659187711 3.0476902371 2.9654393563 2.8937201384 2.8312413375 2.7767288255 2.7290193058 
2.6870952876 2.6500882075 2.617266536 6.2831853072 6.2831853072 6.2831853072 6.2831853072 3.1415926536 3.1415926536 
3.1415926536 3.1415926536 3.1415926536 6.1053039672 5.898798347 5.6768734901 5.4599499503 5.2659633393 5.1032165617 
4.9713148346 4.8656852733 4.7809517865 0.17788134 0.38438696014 0.60631181711 0.82323535693 1.0172219679 1.1799687454 
1.3118704726 1.4175000338 1.5022335207 6.1892828907 6.1070320098 6.035312792 5.9728339911 5.9183214791 5.8706119594 
5.8286879411 5.7916808611 5.7588591896 0.093902416448 0.17615329733 0.2478725152 0.31035131605 0.36486382811 0.41257334776 
0.45449736604 0.4915044461 0.52432611754 3.3194739936 3.5259796137 3.7479044707 3.9648280105 4.1588146215 4.321561399 
4.4534631262 4.5590926874 4.6438261743 2.9637113136 2.7572056934 2.5352808365 2.3183572967 2.1243706857 1.9616239082 
1.829722181 1.7240926197 1.6393591329 3.23549507 3.3177459509 3.3894651688 3.4519439696 3.5064564817 3.5541660013 
3.5960900196 3.6330970997 3.6659187711 3.0476902371 2.9654393563 2.8937201384 2.8312413375 2.7767288255 2.7290193058 
2.6870952876 2.6500882075 2.617266536 4.7123889804 4.7123889804 4.7123889804 4.7123889804 4.7123889804 4.7123889804 
4.7123889804 4.7123889804 4.7123889804 4.6087898617 4.4991390697 4.3857031936 4.2712800401 4.1588146215 4.0509635631 
3.94975894 3.8564636551 3.7716124825 4.8159880991 4.9256388911 5.0390747672 5.1534979207 5.2659633393 5.3738143976 
5.4750190208 5.5683143056 5.6531654782 4.6087898617 4.4991390697 4.3857031936 4.2712800401 4.1588146215 4.0509635631 
3.94975894 3.8564636551 3.7716124825 4.8159880991 4.9256388911 5.0390747672 5.1534979207 5.2659633393 5.3738143976 
5.4750190208 5.5683143056 5.6531654782 1.5707963268 1.5707963268 1.5707963268 1.5707963268 1.5707963268 1.5707963268 
1.5707963268 1.5707963268 1.5707963268 1.6743954455 1.7840462375 1.8974821136 2.0119052671 2.1243706857 2.232221744 
2.3334263672 2.426721652 2.5115728246 1.4671972081 1.3575464161 1.24411054 1.1296873865 1.0172219679 0.90937090954 
0.80816628637 0.71487100155 0.63001982895 1.6743954455 1.7840462375 1.8974821136 2.0119052671 2.1243706857 2.232221744 
2.3334263672 2.426721652 2.5115728246 1.4671972081 1.3575464161 1.24411054 1.1296873865 1.0172219679 0.90937090954 
0.80816628637 0.71487100155 0.63001982895 3.6007720849 3.4966939854 3.3839471039 3.2645756454 3.1415926536 3.0186096618 
2.8992382033 2.7864913217 2.6824132222 5.8240058758 5.9280839753 6.0408308569 6.1602023154 6.2831853072 0.12298299178 
0.2423544503 0.35510133185 0.45917943135 6.0560271438 5.7885595667 5.9702140275 5.5125918794 5.6029703303 5.7885595667 
5.2659633393 5.2659633393 5.2659633393 5.2659633393 5.0674903122 5.0120975802 4.9155579264 4.7123889804 4.1588146215 
4.9155579264 4.8353719722 4.7123889804 4.5092200343 4.1588146215 3.6362183941 4.8004512023 4.7123889804 4.5894059886 
4.4126803806 4.1588146215 3.8218076305 3.4545639333 4.7123889804 4.6243267584 4.5092200343 4.3572876485 4.1588146215 
3.9121860814 3.6362183941 3.368750817 6.0174235957 5.9434319871 5.8263323547 5.8809213739 5.7674481418 5.6279784266 
5.8278025282 5.718968232 5.5891129425 5.4372443565 5.7823484065 5.678536687 5.5575666702 5.4192596322 5.2659633393 
5.743164462 5.6444075337 5.5314983644 5.4046708639 5.2659633393 5.1195510325 5.7091357773 5.6152775188 5.5096229709 
5.3926039573 5.2659633393 5.1329233157 4.9978930058 5.6793730533 5.5901633916 5.4910209005 5.3824597928 5.2659633393 
5.1440684722 5.0201624502 4.8979782167 5.5683143056 5.4750190208 5.4750190208 5.3738143976 5.3738143976 5.3738143976 
5.2659633393 5.2659633393 5.2659633393 5.2659633393 5.1534979207 5.1534979207 5.1534979207 5.1534979207 5.1534979207 
5.0390747672 5.0390747672 5.0390747672 5.0390747672 5.0390747672 5.0390747672 4.9256388911 4.9256388911 4.9256388911 
4.9256388911 4.9256388911 4.9256388911 4.9256388911 4.8159880991 4.8159880991 4.8159880991 4.8159880991 4.8159880991 
4.8159880991 4.8159880991 4.8159880991 4.6087898617 4.6087898617 4.4991390697 4.6087898617 4.4991390697 4.3857031936 
4.6087898617 4.4991390697 4.3857031936 4.2712800401 4.6087898617 4.4991390697 4.3857031936 4.2712800401 4.1588146215 
4.6087898617 4.4991390697 4.3857031936 4.2712800401 4.1588146215 4.0509635631 4.6087898617 4.4991390697 4.3857031936 
4.2712800401 4.1588146215 4.0509635631 3.94975894 4.6087898617 4.4991390697 4.3857031936 4.2712800401 4.1588146215 
4.0509635631 3.94975894 3.8564636551 4.526799744 4.4046155105 4.426884955 4.2807094886 4.2918546451 4.3052269283 
4.1588146215 4.1588146215 4.1588146215 4.1588146215 4.042318168 4.0321740035 4.0201070968 4.0055183285 3.9875336042 
3.9337570603 3.9151549899 3.8932795963 3.8672112905 3.8356650183 3.7967995342 3.8346145692 3.809500442 3.7803704271 
3.7462412737 3.7058097288 3.657329819 3.5984456061 3.7454049075 3.7156421835 3.6816134988 3.6424295543 3.5969754326 
3.5438565869 3.4813459737 3.4073543651 3.5642842451 3.4524645613 3.5233842518 3.3320300872 3.403123212 3.4773852225 
3.20576226 3.2746326772 3.348015857 3.4255060145 3.0774230472 3.1415926536 3.2112816139 3.2864685043 3.3668817272 
2.95115522 3.00855263 3.0719036933 3.1415926536 3.2178377658 3.3005964304 2.8307207459 2.8800620952 2.9351694502 
2.9967168029 3.0653475414 3.1415926536 3.225752376 2.718901062 2.7598010554 2.8058000847 2.8576792927 2.91630358 
2.9825888767 3.0574329311 3.1415926536 3.5642842451 3.5233842518 3.4524645613 3.4773852225 3.403123212 3.3320300872 
3.4255060145 3.348015857 3.2746326772 3.20576226 3.3668817272 3.2864685043 3.2112816139 3.1415926536 3.0774230472 
3.3005964304 3.2178377658 3.1415926536 3.0719036933 3.00855263 2.95115522 3.225752376 3.1415926536 3.0653475414 
2.9967168029 2.9351694502 2.8800620952 2.8307207459 3.1415926536 3.0574329311 2.9825888767 2.91630358 2.8576792927 
2.8058000847 2.7598010554 2.718901062 4.526799744 4.426884955 4.4046155105 4.3052269283 4.2918546451 4.2807094886 
4.1588146215 4.1588146215 4.1588146215 4.1588146215 3.9875336042 4.0055183285 4.0201070968 4.0321740035 4.042318168 
3.7967995342 3.8356650183 3.8672112905 3.8932795963 3.9151549899 3.9337570603 3.5984456061 3.657329819 3.7058097288 
3.7462412737 3.7803704271 3.809500442 3.8346145692 3.4073543651 3.4813459737 3.5438565869 3.5969754326 3.6424295543 
3.6816134988 3.7156421835 3.7454049075 4.7123889804 4.8004512023 4.6243267584 4.9155579264 4.7123889804 4.5092200343 
5.0674903122 4.8353719722 4.5894059886 4.3572876485 5.2659633393 5.0120975802 4.7123889804 4.4126803806 4.1588146215 
5.5125918794 5.2659633393 4.9155579264 4.5092200343 4.1588146215 3.9121860814 5.7885595667 5.6029703303 5.2659633393 
4.7123889804 4.1588146215 3.8218076305 3.6362183941 6.0560271438 5.9702140275 5.7885595667 5.2659633393 4.1588146215 
3.6362183941 3.4545639333 3.368750817 0.22715816343 0.49462574053 0.3129712797 0.77059342779 0.68021497688 0.49462574053 
1.0172219679 1.0172219679 1.0172219679 1.0172219679 1.2156949949 1.271087727 1.3676273807 1.5707963268 2.1243706857 
1.3676273807 1.447813335 1.5707963268 1.7739652728 2.1243706857 2.6469669131 1.4827341049 1.5707963268 1.6937793186 
1.8705049266 2.1243706857 2.4613776767 2.8286213739 1.5707963268 1.6588585487 1.7739652728 1.9258976586 2.1243706857 
2.3709992258 2.6469669131 2.9144344902 1.7563855631 1.8785697967 1.8563003522 2.0024758186 1.9913306621 1.9779583789 
2.1243706857 2.1243706857 2.1243706857 2.1243706857 2.2408671392 2.2510113037 2.2630782103 2.2776669786 2.295651703 
2.3494282469 2.3680303173 2.3899057108 2.4159740166 2.4475202889 2.486385773 2.448570738 2.4736848652 2.5028148801 
2.5369440334 2.5773755784 2.6258554882 2.6847397011 2.5377803997 2.5675431237 2.6015718084 2.6407557529 2.6862098746 
2.7393287203 2.8018393335 2.8758309421 1.6743954455 1.6743954455 1.7840462375 1.6743954455 1.7840462375 1.8974821136 
1.6743954455 1.7840462375 1.8974821136 2.0119052671 1.6743954455 1.7840462375 1.8974821136 2.0119052671 2.1243706857 
1.6743954455 1.7840462375 1.8974821136 2.0119052671 2.1243706857 2.232221744 1.6743954455 1.7840462375 1.8974821136 
2.0119052671 2.1243706857 2.232221744 2.3334263672 1.6743954455 1.7840462375 1.8974821136 2.0119052671 2.1243706857 
2.232221744 2.3334263672 2.426721652 1.4671972081 1.3575464161 1.4671972081 1.24411054 1.3575464161 1.4671972081 
1.1296873865 1.24411054 1.3575464161 1.4671972081 1.0172219679 1.1296873865 1.24411054 1.3575464161 1.4671972081 
0.90937090954 1.0172219679 1.1296873865 1.24411054 1.3575464161 1.4671972081 0.80816628637 0.90937090954 1.0172219679 
1.1296873865 1.24411054 1.3575464161 1.4671972081 0.71487100155 0.80816628637 0.90937090954 1.0172219679 1.1296873865 
1.24411054 1.3575464161 1.4671972081 0.60381225391 0.57404952988 0.69302191562 0.54002084522 0.66790778838 0.79216440667 
0.50083690068 0.63877777351 0.77356233629 0.90072551443 0.45538277901 0.60464862014 0.75168694275 0.89058134991 1.0172219679 
0.40226393329 0.56421707518 0.72561863695 0.87851444325 1.0172219679 1.139116835 0.33975332011 0.51573716537 0.69407236469 
0.86392567495 1.0172219679 1.1502619915 1.2630228569 0.26576171152 0.45685295248 0.6552068806 0.84594095064 1.0172219679 
1.1636342747 1.2852923014 1.3852070904 0.22715816343 0.3129712797 0.49462574053 0.49462574053 0.68021497688 0.77059342779 
1.0172219679 1.0172219679 1.0172219679 1.0172219679 2.1243706857 1.5707963268 1.3676273807 1.271087727 1.2156949949 
2.6469669131 2.1243706857 1.7739652728 1.5707963268 1.447813335 1.3676273807 2.8286213739 2.4613776767 2.1243706857 
1.8705049266 1.6937793186 1.5707963268 1.4827341049 2.9144344902 2.6469669131 2.3709992258 2.1243706857 1.9258976586 
1.7739652728 1.6588585487 1.5707963268 1.7563855631 1.8563003522 1.8785697967 1.9779583789 1.9913306621 2.0024758186 
2.1243706857 2.1243706857 2.1243706857 2.1243706857 2.295651703 2.2776669786 2.2630782103 2.2510113037 2.2408671392 
2.486385773 2.4475202889 2.4159740166 2.3899057108 2.3680303173 2.3494282469 2.6847397011 2.6258554882 2.5773755784 
2.5369440334 2.5028148801 2.4736848652 2.448570738 2.8758309421 2.8018393335 2.7393287203 2.6862098746 2.6407557529 
2.6015718084 2.5675431237 2.5377803997 5.8604937156 5.901393709 5.9723133995 5.9473927383 6.0216547488 6.0927478736 
5.9992719463 6.0767621038 6.1501452836 6.2190157008 6.0578962336 6.1383094565 6.2134963469 0 0.064169606361 
6.1241815303 6.206940195 6.2831853072 0.069688960264 0.13304002361 0.19043743361 6.1990255847 0 0.07624511221 
0.14487585072 0.20642320337 0.26153055843 0.3108719077 0 0.084159722458 0.15900377685 0.22528907359 0.28391336087 
0.3357925689 0.38179159818 0.42269159155 5.8604937156 5.9723133995 5.901393709 6.0927478736 6.0216547488 5.9473927383 
6.2190157008 6.1501452836 6.0767621038 5.9992719463 0.064169606361 0 6.2134963469 6.1383094565 6.0578962336 
0.19043743361 0.13304002361 0.069688960264 6.2831853072 6.206940195 6.1241815303 0.3108719077 0.26153055843 0.20642320337 
0.14487585072 0.07624511221 6.2831853072 6.1990255847 0.42269159155 0.38179159818 0.3357925689 0.28391336087 0.22528907359 
0.15900377685 0.084159722458 0 5.6793730533 5.7091357773 5.5901633916 5.743164462 5.6152775188 5.4910209005 
5.7823484065 5.6444075337 5.5096229709 5.3824597928 5.8278025282 5.678536687 5.5314983644 5.3926039573 5.2659633393 
5.8809213739 5.718968232 5.5575666702 5.4046708639 5.2659633393 5.1440684722 5.9434319871 5.7674481418 5.5891129425 
5.4192596322 5.2659633393 5.1329233157 5.0201624502 6.0174235957 5.8263323547 5.6279784266 5.4372443565 5.2659633393 
5.1195510325 4.9978930058 4.8979782167 1.3852070904 1.2852923014 1.2630228569 1.1636342747 1.1502619915 1.139116835 
1.0172219679 1.0172219679 1.0172219679 1.0172219679 0.84594095064 0.86392567495 0.87851444325 0.89058134991 0.90072551443 
0.6552068806 0.69407236469 0.72561863695 0.75168694275 0.77356233629 0.79216440667 0.45685295248 0.51573716537 0.56421707518 
0.60464862014 0.63877777351 0.66790778838 0.69302191562 0.26576171152 0.33975332011 0.40226393329 0.45538277901 0.50083690068 
0.54002084522 0.57404952988 0.60381225391 
_paraPhiHalf 1 1002 double
0 3.1415926536 0 3.1415926536 1.5707963268 1.5707963268 1.5707963268 1.5707963268 2.5880182947 
0.5535743589 2.5880182947 0.5535743589 0 0 0 0 3.1415926536 3.1415926536 
3.1415926536 3.1415926536 3.1415926536 0.17788134 0.38438696014 0.60631181711 0.82323535693 1.0172219679 1.1799687454 
1.3118704726 1.4175000338 1.5022335207 0.17788134 0.38438696014 0.60631181711 0.82323535693 1.0172219679 1.1799687454 
1.3118704726 1.4175000338 1.5022335207 0.093902416448 0.17615329733 0.2478725152 0.31035131605 0.36486382811 0.41257334776 
0.45449736604 0.4915044461 0.52432611754 0.093902416448 0.17615329733 0.2478725152 0.31035131605 0.36486382811 0.41257334776 
0.45449736604 0.4915044461 0.52432611754 2.9637113136 2.7572056934 2.5352808365 2.3183572967 2.1243706857 1.9616239082 
1.829722181 1.7240926197 1.6393591329 2.9637113136 2.7572056934 2.5352808365 2.3183572967 2.1243706857 1.9616239082 
1.829722181 1.7240926197 1.6393591329 3.0476902371 2.9654393563 2.8937201384 2.8312413375 2.7767288255 2.7290193058 
2.6870952876 2.6500882075 2.617266536 3.0476902371 2.9654393563 2.8937201384 2.8312413375 2.7767288255 2.7290193058 
2.6870952876 2.6500882075 2.617266536 0 0 0 0 3.1415926536 3.1415926536 
3.1415926536 3.1415926536 3.1415926536 0.17788134 0.38438696014 0.60631181711 0.82323535693 1.0172219679 1.1799687454 
1.3118704726 1.4175000338 1.5022335207 0.17788134 0.38438696014 0.60631181711 0.82323535693 1.0172219679 1.1799687454 
1.3118704726 1.4175000338 1.5022335207 0.093902416448 0.17615329733 0.2478725152 0.31035131605 0.36486382811 0.41257334776 
0.45449736604 0.4915044461 0.52432611754 0.093902416448 0.17615329733 0.2478725152 0.31035131605 0.36486382811 0.41257334776 
0.45449736604 0.4915044461 0.52432611754 2.9637113136 2.7572056934 2.5352808365 2.3183572967 2.1243706857 1.9616239082 
1.829722181 1.7240926197 1.6393591329 2.9637113136 2.7572056934 2.5352808365 2.3183572967 2.1243706857 1.9616239082 
1.829722181 1.7240926197 1.6393591329 3.0476902371 2.9654393563 2.8937201384 2.8312413375 2.7767288255 2.7290193058 
2.6870952876 2.6500882075 2.617266536 3.0476902371 2.9654393563 2.8937201384 2.8312413375 2.7767288255 2.7290193058 
2.6870952876 2.6500882075 2.617266536 1.5707963268 1.5707963268 1.5707963268 1.5707963268 1.5707963268 1.5707963268 
1.5707963268 1.5707963268 1.5707963268 1.6743954455 1.7840462375 1.8974821136 2.0119052671 2.1243706857 2.232221744 
2.3334263672 2.426721652 2.5115728246 1.4671972081 1.3575464161 1.24411054 1.1296873865 1.0172219679 0.90937090954 
0.80816628637 0.71487100155 0.63001982895 1.6743954455 1.7840462375 1.8974821136 2.0119052671 2.1243706857 2.232221744 
2.3334263672 2.426721652 2.5115728246 1.4671972081 1.3575464161 1.24411054 1.1296873865 1.0172219679 0.90937090954 
0.80816628637 0.71487100155 0.63001982895 1.5707963268 1.5707963268 1.5707963268 1.5707963268 1.5707963268 1.5707963268 
1.5707963268 1.5707963268 1.5707963268 1.6743954455 1.7840462375 1.8974821136 2.0119052671 2.1243706857 2.232221744 
2.3334263672 2.426721652 2.5115728246 1.4671972081 1.3575464161 1.24411054 1.1296873865 1.0172219679 0.90937090954 
0.80816628637 0.71487100155 0.63001982895 1.6743954455 1.7840462375 1.8974821136 2.0119052671 2.1243706857 2.232221744 
2.3334263672 2.426721652 2.5115728246 1.4671972081 1.3575464161 1.24411054 1.1296873865 1.0172219679 0.90937090954 
0.80816628637 0.71487100155 0.63001982895 2.6824132222 2.7864913217 2.8992382033 3.0186096618 3.1415926536 3.0186096618 
2.8992382033 2.7864913217 2.6824132222 0.45917943135 0.35510133185 0.2423544503 0.12298299178 0 0.12298299178 
0.2423544503 0.35510133185 0.45917943135 0.22715816343 0.49462574053 0.3129712797 0.77059342779 0.68021497688 0.49462574053 
1.0172219679 1.0172219679 1.0172219679 1.0172219679 1.2156949949 1.271087727 1.3676273807 1.5707963268 2.1243706857 
1.3676273807 1.447813335 1.5707963268 1.7739652728 2.1243706857 2.6469669131 1.4827341049 1.5707963268 1.6937793186 
1.8705049266 2.1243706857 2.4613776767 2.8286213739 1.5707963268 1.6588585487 1.7739652728 1.9258976586 2.1243706857 
2.3709992258 2.6469669131 2.9144344902 0.26576171152 0.33975332011 0.45685295248 0.40226393329 0.51573716537 0.6552068806 
0.45538277901 0.56421707518 0.69407236469 0.84594095064 0.50083690068 0.60464862014 0.72561863695 0.86392567495 1.0172219679 
0.54002084522 0.63877777351 0.75168694275 0.87851444325 1.0172219679 1.1636342747 0.57404952988 0.66790778838 0.77356233629 
0.89058134991 1.0172219679 1.1502619915 1.2852923014 0.60381225391 0.69302191562 0.79216440667 0.90072551443 1.0172219679 
1.139116835 1.2630228569 1.3852070904 0.71487100155 0.80816628637 0.80816628637 0.90937090954 0.90937090954 0.90937090954 
1.0172219679 1.0172219679 1.0172219679 1.0172219679 1.1296873865 1.1296873865 1.1296873865 1.1296873865 1.1296873865 
1.24411054 1.24411054 1.24411054 1.24411054 1.24411054 1.24411054 1.3575464161 1.3575464161 1.3575464161 
1.3575464161 1.3575464161 1.3575464161 1.3575464161 1.4671972081 1.4671972081 1.4671972081 1.4671972081 1.4671972081 
1.4671972081 1.4671972081 1.4671972081 1.6743954455 1.6743954455 1.7840462375 1.6743954455 1.7840462375 1.8974821136 
1.6743954455 1.7840462375 1.8974821136 2.0119052671 1.6743954455 1.7840462375 1.8974821136 2.0119052671 2.1243706857 
1.6743954455 1.7840462375 1.8974821136 2.0119052671 2.1243706857 2.232221744 1.6743954455 1.7840462375 1.8974821136 
2.0119052671 2.1243706857 2.232221744 2.3334263672 1.6743954455 1.7840462375 1.8974821136 2.0119052671 2.1243706857 
2.232221744 2.3334263672 2.426721652 1.7563855631 1.8785697967 1.8563003522 2.0024758186 1.9913306621 1.9779583789 
2.1243706857 2.1243706857 2.1243706857 2.1243706857 2.2408671392 2.2510113037 2.2630782103 2.2776669786 2.295651703 
2.3494282469 2.3680303173 2.3899057108 2.4159740166 2.4475202889 2.486385773 2.448570738 2.4736848652 2.5028148801 
2.5369440334 2.5773755784 2.6258554882 2.6847397011 2.5377803997 2.5675431237 2.6015718084 2.6407557529 2.6862098746 
2.7393287203 2.8018393335 2.8758309421 2.718901062 2.8307207459 2.7598010554 2.95115522 2.8800620952 2.8058000847 
3.0774230472 3.00855263 2.9351694502 2.8576792927 3.0774230472 3.1415926536 3.0719036933 2.9967168029 2.91630358 
2.95115522 3.00855263 3.0719036933 3.1415926536 3.0653475414 2.9825888767 2.8307207459 2.8800620952 2.9351694502 
2.9967168029 3.0653475414 3.1415926536 3.0574329311 2.718901062 2.7598010554 2.8058000847 2.8576792927 2.91630358 
2.9825888767 3.0574329311 3.1415926536 2.718901062 2.7598010554 2.8307207459 2.8058000847 2.8800620952 2.95115522 
2.8576792927 2.9351694502 3.00855263 3.0774230472 2.91630358 2.9967168029 3.0719036933 3.1415926536 3.0774230472 
2.9825888767 3.0653475414 3.1415926536 3.0719036933 3.00855263 2.95115522 3.0574329311 3.1415926536 3.0653475414 