# vtk DataFile Version 5.1
vtk output
ASCII
DATASET POLYDATA
POINTS 1002 float
-10.7144 0.275694 -1.7626 -22.522 -17.3047 -6.11269 -9.3191 -3.569 4.40051 
-21.3419 -18.2103 -1.23978 -12.7827 -7.87076 -2.74256 -12.2695 -9.46729 0.288265 
-20.9964 -5.37522 -0.301393 -21.2319 -7.08496 3.52918 -16.3829 -29.3619 -8.86646 
-0.793105 -0.181247 0.188881 -25.3968 -23.5304 -5.27273 -11.2933 4.83486 3.63883 
-11.6342 -0.608781 -1.90238 -12.7255 -1.72596 -1.99439 -13.9781 -3.08671 -2.03057 
-15.5223 -4.67043 -2.1425 -17.4392 -6.62376 -2.45693 -19.3869 -8.99074 -3.0177 
-20.8709 -11.4162 -3.83116 -21.773 -13.5974 -4.74414 -22.2672 -15.5461 -5.52271 
-10.3709 -0.150128 -2.03444 -10.0636 -0.72405 -2.27358 -9.8482 -1.45293 -2.51254 
-9.75507 -2.33204 -2.7472 -9.74696 -3.3521 -2.90329 -9.81821 -4.39841 -3.02698 
-10.1101 -5.33591 -3.1928 -10.7668 -6.19653 -3.2444 -11.7276 -7.04963 -3.04894 
-11.6113 0.0915706 -1.52815 -12.5825 -0.19318 -1.25691 -13.6427 -0.584739 -1.02174 
-14.7808 -1.12968 -0.824753 -15.9427 -1.81957 -0.624696 -17.1206 -2.55523 -0.481344 
-18.2878 -3.28558 -0.437507 -19.3352 -4.01908 -0.409509 -20.2211 -4.72786 -0.349971 
-9.64213 0.836964 -1.79632 -8.51164 1.36284 -1.82125 -7.26026 1.8271 -1.81305 
-5.82665 2.15812 -1.76533 -4.36808 2.25479 -1.69779 -3.12865 2.09258 -1.52638 
-2.14761 1.72538 -1.15566 -1.39478 1.18907 -0.679879 -0.932598 0.524849 -0.227853 
-10.458 1.02423 -1.489 -10.2682 1.84005 -1.19647 -10.1133 2.64814 -0.808955 
-10.0171 3.34512 -0.271489 -10.0735 3.93866 0.290639 -10.2915 4.47219 0.813617 
-10.5722 4.89483 1.4529 -10.8527 5.09824 2.24299 -11.1064 5.04728 3.01078 
-22.0398 -17.0945 -6.10538 -21.5045 -16.7261 -6.00856 -20.8894 -16.1642 -5.79184 
-20.2481 -15.4194 -5.43759 -19.6797 -14.4684 -4.91749 -18.9813 -13.1722 -4.2431 
-17.8205 -11.5252 -3.54861 -16.2446 -9.87355 -3.02404 -14.5097 -8.61717 -2.76934 
-22.8501 -16.361 -5.71882 -23.1073 -15.277 -5.23465 -23.2652 -14.0367 -4.66758 
-23.2743 -12.6375 -4.03147 -23.0901 -11.1613 -3.3467 -22.7554 -9.75632 -2.6409 
-22.3369 -8.4924 -1.95598 -21.8679 -7.33511 -1.3358 -21.4026 -6.27983 -0.791106 
-22.3319 -18.934 -6.67362 -21.9775 -20.6335 -7.32 -21.4507 -22.3391 -8.05365 
-20.7221 -24.0668 -8.72771 -19.8266 -25.7479 -9.23778 -18.9135 -27.177 -9.70607 
-18.0376 -28.2604 -10.1217 -17.1963 -29.0057 -10.1595 -16.5777 -29.3721 -9.6666 
-22.9126 -18.4187 -6.42654 -23.2952 -19.4959 -6.75643 -23.6419 -20.5067 -7.04636 
-23.9426 -21.4706 -7.19133 -24.2287 -22.3798 -7.19004 -24.529 -23.1383 -7.10978 
-24.8303 -23.6528 -6.89423 -25.0918 -23.8887 -6.46475 -25.2809 -23.8356 -5.88616 
-10.2673 -4.36872 4.29942 -11.4079 -5.26555 4.14949 -12.8361 -6.28722 3.90745 
-14.557 -7.48333 3.49515 -16.3875 -8.90082 2.88202 -18.0557 -10.5892 2.08919 
-19.3816 -12.5295 1.18312 -20.3346 -14.5442 0.276735 -20.9651 -16.4541 -0.540363 
-9.12121 -4.04847 4.05393 -8.97735 -4.63709 3.72065 -8.91887 -5.33 3.38237 
-8.9766 -6.03436 2.97805 -9.20283 -6.69125 2.50489 -9.59303 -7.34173 2.02063 
-10.1104 -7.99154 1.55531 -10.7538 -8.57227 1.1056 -11.4946 -9.05215 0.678898 
-10.1083 -3.63125 4.69428 -11.0088 -3.78392 4.94381 -12.164 -4.04629 5.09532 
-13.6553 -4.40359 5.13009 -15.2644 -4.79591 5.04388 -16.7572 -5.1914 4.85151 
-18.13 -5.63222 4.59262 -19.3608 -6.13941 4.27776 -20.3863 -6.64849 3.90945 
-8.26896 -3.09128 4.22876 -7.1644 -2.61757 3.99468 -6.06042 -2.1323 3.71517 
-4.96414 -1.65237 3.36975 -3.91142 -1.2347 2.93832 -2.98423 -0.899547 2.47727 
-2.17334 -0.615852 2.0025 -1.46807 -0.389121 1.44376 -0.977882 -0.249727 0.807119 
-8.90405 -2.7567 4.64136 -8.49689 -1.75818 4.78037 -8.16006 -0.557052 4.80429 
-8.02606 0.782077 4.83826 -8.18893 2.09742 4.87619 -8.58184 3.18003 4.7476 
-9.13033 3.95401 4.4867 -9.84445 4.47791 4.24751 -10.6281 4.77365 3.99698 
-20.8683 -17.7973 -1.15043 -20.3712 -17.2086 -1.02646 -19.7811 -16.4139 -0.845457 
-19.0515 -15.4069 -0.572163 -18.2534 -14.2362 -0.238148 -17.3842 -12.9765 0.0588453 
-16.3031 -11.7375 0.265765 -14.9961 -10.6886 0.379156 -13.6083 -9.94155 0.385261 
-21.6338 -17.4392 -0.881643 -21.8816 -16.5179 -0.457583 -22.0612 -15.4477 0.0326811 
-22.2124 -14.2783 0.608862 -22.3228 -13.0616 1.2512 -22.2752 -11.8118 1.86577 
-22.0634 -10.5393 2.39172 -21.809 -9.28653 2.84182 -21.5445 -8.12214 3.22479 
-21.2586 -19.7811 -1.84947 -21.037 -21.5073 -2.48672 -20.6655 -23.2528 -3.15384 
-20.1174 -24.9047 -3.88116 -19.4632 -26.4409 -4.71492 -18.8051 -27.7651 -5.61777 
-18.0519 -28.7358 -6.50352 -17.1907 -29.3251 -7.36902 -16.5455 -29.535 -8.19922 
-21.7948 -19.4835 -1.67657 -22.2285 -20.7584 -2.07893 -22.6561 -21.9204 -2.46365 
-23.1168 -22.857 -2.89366 -23.5842 -23.5169 -3.34027 -23.9952 -23.8952 -3.7408 
-24.3724 -24.0019 -4.1326 -24.7561 -23.9181 -4.54146 -25.1123 -23.7597 -4.92978 
-12.3211 -8.04095 -2.59833 -11.7909 -8.2383 -2.50301 -11.3611 -8.50126 -2.41105 
-11.1749 -8.81564 -2.17912 -11.1831 -9.11185 -1.79963 -11.2407 -9.35258 -1.37094 
-11.3473 -9.50621 -0.911847 -11.5876 -9.54026 -0.449868 -11.9292 -9.50159 -0.048137 
-14.9388 -9.28406 -2.60545 -16.8021 -11.4251 -3.0552 -17.9185 -14.3108 -4.07725 
-18.4539 -17.6376 -5.18461 -18.6266 -20.8263 -6.08547 -18.3461 -23.3898 -6.94016 
-17.7711 -25.3545 -7.77111 -17.1909 -27.0114 -8.39822 -16.6886 -28.3964 -8.76046 
-10.4733 -7.06846 -3.05503 -8.49349 -6.48707 -3.26854 -6.92422 -5.78085 -3.11887 
-5.49989 -4.91924 -2.73856 -4.23318 -4.0726 -2.31995 -3.23981 -3.21303 -1.84849 
-2.32762 -2.32996 -1.34662 -1.4697 -1.53643 -0.860672 -0.922601 -0.833785 -0.349551 
-13.9516 -10.2648 -0.0679591 -15.6337 -11.6561 -0.610835 -16.9554 -13.8558 -1.41086 
-17.8201 -16.6172 -2.45849 -18.291 -19.6033 -3.60094 -18.2753 -22.6443 -4.71274 
-17.8043 -25.3325 -5.82656 -17.1777 -27.278 -6.94052 -16.6548 -28.5499 -7.96712 
-10.4664 -8.88861 0.340182 -8.66818 -8.29734 0.379965 -6.87108 -7.68774 0.50932 
-5.13546 -7.09083 0.67228 -3.74922 -6.30277 0.699912 -2.80535 -5.15695 0.592152 
-2.0487 -3.83696 0.478737 -1.37152 -2.54938 0.383488 -0.920313 -1.32378 0.280817 
-21.2548 -5.24094 0.0145666 -21.5461 -5.11011 0.367806 -21.7725 -5.04296 0.825384 
-21.9103 -5.05974 1.41996 -22.0177 -5.12192 2.08955 -22.0405 -5.28846 2.70274 
-21.9104 -5.6633 3.12327 -21.7027 -6.17819 3.33773 -21.4817 -6.67631 3.44997 
-21.9985 -6.61812 -0.59973 -23.065 -8.109 -1.01292 -24.1606 -9.7368 -1.55458 
-25.1609 -11.3461 -2.13642 -25.8759 -13.1133 -2.74607 -26.2441 -15.4877 -3.50451 
-26.3408 -18.3424 -4.31449 -26.2048 -20.8452 -4.88526 -25.8598 -22.4955 -5.15313 
-20.1231 -4.18732 0.185264 -19.1688 -2.99132 0.727009 -18.2027 -1.70508 1.22844 
-17.2712 -0.347388 1.6264 -16.3143 0.962998 1.99778 -15.2938 2.13503 2.39355 
-14.2856 3.08349 2.77369 -13.3233 3.81129 3.1308 -12.3374 4.40218 3.44429 
-22.2343 -8.15104 2.94852 -23.2108 -9.46315 2.23348 -24.1277 -11.1369 1.37384 
-25.0043 -13.0273 0.444989 -25.7218 -14.9328 -0.502924 -26.1115 -16.9644 -1.50657 
-26.1913 -19.1244 -2.57865 -26.0558 -21.0344 -3.62951 -25.7666 -22.4651 -4.53825 
-20.3604 -5.8036 4.02779 -19.4598 -4.35793 4.53349 -18.5485 -2.79455 4.95908 
-17.4349 -1.25323 5.15759 -16.0964 0.256804 5.15572 -14.8796 1.75141 5.10853 
-13.9269 2.99619 4.96486 -13.0409 3.8164 4.61108 -12.138 4.36545 4.12975 
-16.4306 -30.0541 -9.30881 -17.1278 -30.4172 -9.51833 -18.5279 -30.4875 -9.3265 
-20.0503 -30.2443 -8.77753 -21.2003 -29.5776 -8.16386 -22.2177 -28.6018 -7.62177 
-23.2697 -27.4577 -7.02728 -24.1407 -26.1178 -6.36645 -24.8143 -24.7393 -5.76933 
-0.999738 0.898461 0.483639 -1.50659 1.93421 0.788964 -2.32618 2.82789 1.0931 
-3.4285 3.67957 1.40427 -4.60317 4.52702 1.71023 -5.8032 5.14838 2.03229 
-7.20028 5.44753 2.44408 -8.70058 5.48568 2.92358 -10.0788 5.26047 3.34662 
-11.4043 -1.14945 -2.15677 -11.2122 -1.86748 -2.34075 -12.6187 -2.42338 -2.19587 
-11.1161 -2.69211 -2.54235 -12.5536 -3.23483 -2.35148 -14.0479 -3.90183 -2.2183 
-11.1197 -3.56334 -2.76565 -12.624 -4.03235 -2.57011 -14.2446 -4.77807 -2.41731 
-15.9117 -5.66106 -2.38941 -11.1963 -4.50237 -2.89247 -12.8891 -4.8901 -2.77264 
-14.7115 -5.73531 -2.66132 -16.5039 -6.84206 -2.66238 -18.1108 -7.96041 -2.81541 
-11.5093 -5.48906 -2.9488 -13.4014 -5.98336 -2.83402 -15.4813 -6.99328 -2.85905 
-17.3178 -8.30394 -2.98376 -18.8195 -9.54877 -3.23869 -19.993 -10.5884 -3.56065 
-12.2771 -6.50611 -2.98308 -14.2471 -7.27191 -2.85964 -16.4041 -8.55222 -3.01912 
-18.1654 -10.0255 -3.36798 -19.4126 -11.2985 -3.77873 -20.3779 -12.2766 -4.19537 
-21.1494 -13.0289 -4.53447 -13.3913 -7.56908 -2.91424 -15.3024 -8.60839 -2.93274 
-17.2477 -10.1268 -3.25145 -18.7537 -11.7209 -3.80676 -19.7045 -12.9962 -4.3863 
-20.4464 -13.924 -4.86684 -21.1407 -14.6322 -5.22263 -21.7444 -15.1678 -5.43606 
-9.19283 0.346778 -2.06321 -7.97872 0.784287 -2.09607 -8.80097 -0.26847 -2.35853 
-6.65091 1.15823 -2.09335 -7.50093 0.112964 -2.43648 -8.51276 -1.02851 -2.66428 
-5.17907 1.36016 -2.02866 -6.11721 0.365377 -2.41077 -7.11003 -0.709534 -2.72386 
-8.38193 -2.01635 -2.86333 -3.76751 1.27921 -1.903 -4.70749 0.347213 -2.27101 
-5.70713 -0.637273 -2.61861 -6.95163 -1.81804 -2.85054 -8.44334 -3.22051 -2.97814 
-2.61149 0.967482 -1.64278 -3.46211 0.0704851 -2.05028 -4.45555 -0.895308 -2.41793 
-5.60212 -1.90336 -2.73602 -7.12889 -3.14937 -3.00378 -8.66341 -4.41004 -3.20132 
-1.73452 0.493132 -1.23275 -2.48949 -0.335941 -1.71058 -3.47067 -1.30998 -2.14131 
-4.50646 -2.27677 -2.54577 -5.87666 -3.28932 -2.92585 -7.5003 -4.44393 -3.2812 
-9.03506 -5.42296 -3.43202 -1.16171 -0.133189 -0.782351 -1.82022 -0.875015 -1.28617 
-2.76604 -1.77062 -1.76098 -3.73922 -2.73506 -2.23686 -4.88575 -3.64227 -2.67931 
-6.36799 -4.60989 -3.10403 -7.93439 -5.56335 -3.4181 -9.63257 -6.29764 -3.37806 
-1.25429 -2.06861 -0.284053 -1.87389 -3.4066 -0.216536 -1.97977 -2.86762 -0.83376 
-2.56926 -4.79112 -0.14117 -2.60484 -4.28658 -0.842449 -2.84225 -3.71339 -1.39092 
-3.34619 -6.07889 -0.0159001 -3.24927 -5.66171 -0.829049 -3.41581 -5.1166 -1.47589 
-3.76966 -4.55816 -1.92997 -4.52106 -7.07399 0.0974035 -4.18604 -6.86901 -0.716763 
[...]
POINT_DATA 1002
FIELD FieldData 4
_paraPhi 1 1002 double
6.2831853072 3.1415926536 6.2831853072 3.1415926536 4.7123889804 4.7123889804 1.5707963268 1.5707963268 3.6951670125 
5.7296109483 2.5880182947 0.5535743589 6.2831853072 6.2831853072 6.2831853072 6.2831853072 3.1415926536 3.1415926536 
3.1415926536 3.1415926536 3.1415926536 6.1053039672 5.898798347 5.6768734901 5.4599499503 5.2659633393 5.1032165617 
4.9713148346 4.8656852733 4.7809517865 0.17788134 0.38438696014 0.60631181711 0.82323535693 1.0172219679 1.1799687454 
1.3118704726 1.4175000338 1.5022335207 6.1892828907 6.1070320098 6.035312792 5.9728339911 5.9183214791 5.8706119594 
5.8286879411 5.7916808611 5.7588591896 0.093902416448 0.17615329733 0.2478725152 0.31035131605 0.36486382811 0.41257334776 
0.45449736604 0.4915044461 0.52432611754 3.3194739936 3.5259796137 3.7479044707 3.9648280105 4.1588146215 4.321561399 
4.4534631262 4.5590926874 4.6438261743 2.9637113136 2.7572056934 2.5352808365 2.3183572967 2.1243706857 1.9616239082 
1.829722181 1.7240926197 1.6393591329 3.23549507 3.3177459509 3.3894651688 3.4519439696 3.5064564817 3.5541660013 
3.5960900196 3.6330970997 3.6659187711 3.0476902371 2.9654393563 2.8937201384 2.8312413375 2.7767288255 2.7290193058 
2.6870952876 2.6500882075 2.617266536 6.2831853072 6.2831853072 6.2831853072 6.2831853072 3.1415926536 3.1415926536 
3.1415926536 3.1415926536 3.1415926536 6.1053039672 5.898798347 5.6768734901 5.4599499503 5.2659633393 5.1032165617 
4.9713148346 4.8656852733 4.7809517865 0.17788134 0.38438696014 0.60631181711 0.82323535693 1.0172219679 1.1799687454 
1.3118704726 1.4175000338 1.5022335207 6.1892828907 6.1070320098 6.035312792 5.9728339911 5.9183214791 5.8706119594 
5.8286879411 5.7916808611 5.7588591896 0.093902416448 0.17615329733 0.2478725152 0.31035131605 0.36486382811 0.41257334776 
0.45449736604 0.4915044461 0.52432611754 3.3194739936 3.5259796137 3.7479044707 3.9648280105 4.1588146215 4.321561399 
4.4534631262 4.5590926874 4.6438261743 2.9637113136 2.7572056934 2.5352808365 2.3183572967 2.1243706857 1.9616239082 
1.829722181 1.7240926197 1.6393591329 3.23549507 3.3177459509 3.3894651688 3.4519439696 3.5064564817 3.5541660013 
3.5960900196 3.6330970997 3.6659187711 3.0476902371 2.9654393563 2.8937201384 2.8312413375 2.7767288255 2.7290193058 
2.6870952876 2.6500882075 2.617266536 4.7123889804 4.7123889804 4.7123889804 4.7123889804 4.7123889804 4.7123889804 
4.7123889804 4.7123889804 4.7123889804 4.6087898617 4.4991390697 4.3857031936 4.2712800401 4.1588146215 4.0509635631 
3.94975894 3.8564636551 3.7716124825 4.8159880991 4.9256388911 5.0390747672 5.1534979207 5.2659633393 5.3738143976 
5.4750190208 5.5683143056 5.6531654782 4.6087898617 4.4991390697 4.3857031936 4.2712800401 4.1588146215 4.0509635631 
3.94975894 3.8564636551 3.7716124825 4.8159880991 4.9256388911 5.0390747672 5.1534979207 5.2659633393 5.3738143976 
5.4750190208 5.5683143056 5.6531654782 1.5707963268 1.5707963268 1.5707963268 1.5707963268 1.5707963268 1.5707963268 
1.5707963268 1.5707963268 1.5707963268 1.6743954455 1.7840462375 1.8974821136 2.0119052671 2.1243706857 2.232221744 
2.3334263672 2.426721652 2.5115728246 1.4671972081 1.3575464161 1.24411054 1.1296873865 1.0172219679 0.90937090954 
0.80816628637 0.71487100155 0.63001982895 1.6743954455 1.7840462375 1.8974821136 2.0119052671 2.1243706857 2.232221744 
2.3334263672 2.426721652 2.5115728246 1.4671972081 1.3575464161 1.24411054 1.1296873865 1.0172219679 0.90937090954 
0.80816628637 0.71487100155 0.63001982895 3.6007720849 3.4966939854 3.3839471039 3.2645756454 3.1415926536 3.0186096618 
2.8992382033 2.7864913217 2.6824132222 5.8240058758 5.9280839753 6.0408308569 6.1602023154 6.2831853072 0.12298299178 
0.2423544503 0.35510133185 0.45917943135 6.0560271438 5.7885595667 5.9702140275 5.5125918794 5.6029703303 5.7885595667 
5.2659633393 5.2659633393 5.2659633393 5.2659633393 5.0674903122 5.0120975802 4.9155579264 4.7123889804 4.1588146215 
4.9155579264 4.8353719722 4.7123889804 4.5092200343 4.1588146215 3.6362183941 4.8004512023 4.7123889804 4.5894059886 
4.4126803806 4.1588146215 3.8218076305 3.4545639333 4.7123889804 4.6243267584 4.5092200343 4.3572876485 4.1588146215 
3.9121860814 3.6362183941 3.368750817 6.0174235957 5.9434319871 5.8263323547 5.8809213739 5.7674481418 5.6279784266 
5.8278025282 5.718968232 5.5891129425 5.4372443565 5.7823484065 5.678536687 5.5575666702 5.4192596322 5.2659633393 
5.743164462 5.6444075337 5.5314983644 5.4046708639 5.2659633393 5.1195510325 5.7091357773 5.6152775188 5.5096229709 
5.3926039573 5.2659633393 5.1329233157 4.9978930058 5.6793730533 5.5901633916 5.4910209005 5.3824597928 5.2659633393 
5.1440684722 5.0201624502 4.8979782167 5.5683143056 5.4750190208 5.4750190208 5.3738143976 5.3738143976 5.3738143976 
5.2659633393 5.2659633393 5.2659633393 5.2659633393 5.1534979207 5.1534979207 5.1534979207 5.1534979207 5.1534979207 
5.0390747672 5.0390747672 5.0390747672 5.0390747672 5.0390747672 5.0390747672 4.9256388911 4.9256388911 4.9256388911 
4.9256388911 4.9256388911 4.9256388911 4.9256388911 4.8159880991 4.8159880991 4.8159880991 4.8159880991 4.8159880991 
4.8159880991 4.8159880991 4.8159880991 4.6087898617 4.6087898617 4.4991390697 4.6087898617 4.4991390697 4.3857031936 
4.6087898617 4.4991390697 4.3857031936 4.2712800401 4.6087898617 4.4991390697 4.3857031936 4.2712800401 4.1588146215 
4.6087898617 4.4991390697 4.3857031936 4.2712800401 4.1588146215 4.0509635631 4.6087898617 4.4991390697 4.3857031936 
4.2712800401 4.1588146215 4.0509635631 3.94975894 4.6087898617 4.4991390697 4.3857031936 4.2712800401 4.1588146215 
4.0509635631 3.94975894 3.8564636551 4.526799744 4.4046155105 4.426884955 4.2807094886 4.2918546451 4.3052269283 
4.1588146215 4.1588146215 4.1588146215 4.1588146215 4.042318168 4.0321740035 4.0201070968 4.0055183285 3.9875336042 
3.9337570603 3.9151549899 3.8932795963 3.8672112905 3.8356650183 3.7967995342 3.8346145692 3.809500442 3.7803704271 
3.7462412737 3.7058097288 3.657329819 3.5984456061 3.7454049075 3.7156421835 3.6816134988 3.6424295543 3.5969754326 
3.5438565869 3.4813459737 3.4073543651 3.5642842451 3.4524645613 3.5233842518 3.3320300872 3.403123212 3.4773852225 
3.20576226 3.2746326772 3.348015857 3.4255060145 3.0774230472 3.1415926536 3.2112816139 3.2864685043 3.3668817272 
2.95115522 3.00855263 3.0719036933 3.1415926536 3.2178377658 3.3005964304 2.8307207459 2.8800620952 2.9351694502 
2.9967168029 3.0653475414 3.1415926536 3.225752376 2.718901062 2.7598010554 2.8058000847 2.8576792927 2.91630358 
2.9825888767 3.0574329311 3.1415926536 3.5642842451 3.5233842518 3.4524645613 3.4773852225 3.403123212 3.3320300872 
3.4255060145 3.348015857 3.2746326772 3.20576226 3.3668817272 3.2864685043 3.2112816139 3.1415926536 3.0774230472 
3.3005964304 3.2178377658 3.1415926536 3.0719036933 3.00855263 2.95115522 3.225752376 3.1415926536 3.0653475414 
2.9967168029 2.9351694502 2.8800620952 2.8307207459 3.1415926536 3.0574329311 2.9825888767 2.91630358 2.8576792927 
2.8058000847 2.7598010554 2.718901062 4.526799744 4.426884955 4.4046155105 4.3052269283 4.2918546451 4.2807094886 
4.1588146215 4.1588146215 4.1588146215 4.1588146215 3.9875336042 4.0055183285 4.0201070968 4.0321740035 4.042318168 
3.7967995342 3.8356650183 3.8672112905 3.8932795963 3.9151549899 3.9337570603 3.5984456061 3.657329819 3.7058097288 
3.7462412737 3.7803704271 3.809500442 3.8346145692 3.4073543651 3.4813459737 3.5438565869 3.5969754326 3.6424295543 
3.6816134988 3.7156421835 3.7454049075 4.7123889804 4.8004512023 4.6243267584 4.9155579264 4.7123889804 4.5092200343 
5.0674903122 4.8353719722 4.5894059886 4.3572876485 5.2659633393 5.0120975802 4.7123889804 4.4126803806 4.1588146215 
5.5125918794 5.2659633393 4.9155579264 4.5092200343 4.1588146215 3.9121860814 5.7885595667 5.6029703303 5.2659633393 
4.7123889804 4.1588146215 3.8218076305 3.6362183941 6.0560271438 5.9702140275 5.7885595667 5.2659633393 4.1588146215 
3.6362183941 3.4545639333 3.368750817 0.22715816343 0.49462574053 0.3129712797 0.77059342779 0.68021497688 0.49462574053 
1.0172219679 1.0172219679 1.0172219679 1.0172219679 1.2156949949 1.271087727 1.3676273807 1.5707963268 2.1243706857 
1.3676273807 1.447813335 1.5707963268 1.7739652728 2.1243706857 2.6469669131 1.4827341049 1.5707963268 1.6937793186 
1.8705049266 2.1243706857 2.4613776767 2.8286213739 1.5707963268 1.6588585487 1.7739652728 1.9258976586 2.1243706857 
2.3709992258 2.6469669131 2.9144344902 1.7563855631 1.8785697967 1.8563003522 2.0024758186 1.9913306621 1.9779583789 
2.1243706857 2.1243706857 2.1243706857 2.1243706857 2.2408671392 2.2510113037 2.2630782103 2.2776669786 2.295651703 
2.3494282469 2.3680303173 2.3899057108 2.4159740166 2.4475202889 2.486385773 2.448570738 2.4736848652 2.5028148801 
2.5369440334 2.5773755784 2.6258554882 2.6847397011 2.5377803997 2.5675431237 2.6015718084 2.6407557529 2.6862098746 
2.7393287203 2.8018393335 2.8758309421 1.6743954455 1.6743954455 1.7840462375 1.6743954455 1.7840462375 1.8974821136 
1.6743954455 1.7840462375 1.8974821136 2.0119052671 1.6743954455 1.7840462375 1.8974821136 2.0119052671 2.1243706857 
1.6743954455 1.7840462375 1.8974821136 2.0119052671 2.1243706857 2.232221744 1.6743954455 1.7840462375 1.8974821136 
2.0119052671 2.1243706857 2.232221744 2.3334263672 1.6743954455 1.7840462375 1.8974821136 2.0119052671 2.1243706857 
2.232221744 2.3334263672 2.426721652 1.4671972081 1.3575464161 1.4671972081 1.24411054 1.3575464161 1.4671972081 
1.1296873865 1.24411054 1.3575464161 1.4671972081 1.0172219679 1.1296873865 1.24411054 1.3575464161 1.4671972081 
0.90937090954 1.0172219679 1.1296873865 1.24411054 1.3575464161 1.4671972081 0.80816628637 0.90937090954 1.0172219679 
1.1296873865 1.24411054 1.3575464161 1.4671972081 0.71487100155 0.80816628637 0.90937090954 1.0172219679 1.1296873865 
1.24411054 1.3575464161 1.4671972081 0.60381225391 0.57404952988 0.69302191562 0.54002084522 0.66790778838 0.79216440667 
0.50083690068 0.63877777351 0.77356233629 0.90072551443 0.45538277901 0.60464862014 0.75168694275 0.89058134991 1.0172219679 
0.40226393329 0.56421707518 0.72561863695 0.87851444325 1.0172219679 1.139116835 0.33975332011 0.51573716537 0.69407236469 
0.86392567495 1.0172219679 1.1502619915 1.2630228569 0.26576171152 0.45685295248 0.6552068806 0.84594095064 1.0172219679 
1.1636342747 1.2852923014 1.3852070904 0.22715816343 0.3129712797 0.49462574053 0.49462574053 0.68021497688 0.77059342779 
1.0172219679 1.0172219679 1.0172219679 1.0172219679 2.1243706857 1.5707963268 1.3676273807 1.271087727 1.2156949949 
2.6469669131 2.1243706857 1.7739652728 1.5707963268 1.447813335 1.3676273807 2.8286213739 2.4613776767 2.1243706857 
1.8705049266 1.6937793186 1.5707963268 1.4827341049 2.9144344902 2.6469669131 2.3709992258 2.1243706857 1.9258976586 
1.7739652728 1.6588585487 1.5707963268 1.7563855631 1.8563003522 1.8785697967 1.9779583789 1.9913306621 2.0024758186 
2.1243706857 2.1243706857 2.1243706857 2.1243706857 2.295651703 2.2776669786 2.2630782103 2.2510113037 2.2408671392 
2.486385773 2.4475202889 2.4159740166 2.3899057108 2.3680303173 2.3494282469 2.6847397011 2.6258554882 2.5773755784 
2.5369440334 2.5028148801 2.4736848652 2.448570738 2.8758309421 2.8018393335 2.7393287203 2.6862098746 2.6407557529 
2.6015718084 2.5675431237 2.5377803997 5.8604937156 5.901393709 5.9723133995 5.9473927383 6.0216547488 6.0927478736 
5.9992719463 6.0767621038 6.1501452836 6.2190157008 6.0578962336 6.1383094565 6.2134963469 0 0.064169606361 
6.1241815303 6.206940195 6.2831853072 0.069688960264 0.13304002361 0.19043743361 6.1990255847 0 0.07624511221 
0.14487585072 0.20642320337 0.26153055843 0.3108719077 0 0.084159722458 0.15900377685 0.22528907359 0.28391336087 
0.3357925689 0.38179159818 0.42269159155 5.8604937156 5.9723133995 5.901393709 6.0927478736 6.0216547488 5.9473927383 
6.2190157008 6.1501452836 6.0767621038 5.9992719463 0.064169606361 0 6.2134963469 6.1383094565 6.0578962336 
0.19043743361 0.13304002361 0.069688960264 6.2831853072 6.206940195 6.1241815303 0.3108719077 0.26153055843 0.20642320337 
0.14487585072 0.07624511221 6.2831853072 6.1990255847 0.42269159155 0.38179159818 0.3357925689 0.28391336087 0.22528907359 
0.15900377685 0.084159722458 0 5.6793730533 5.7091357773 5.5901633916 5.743164462 5.6152775188 5.4910209005 
5.7823484065 5.6444075337 5.5096229709 5.3824597928 5.8278025282 5.678536687 5.5314983644 5.3926039573 5.2659633393 
5.8809213739 5.718968232 5.5575666702 5.4046708639 5.2659633393 5.1440684722 5.9434319871 5.7674481418 5.5891129425 
5.4192596322 5.2659633393 5.1329233157 5.0201624502 6.0174235957 5.8263323547 5.6279784266 5.4372443565 5.2659633393 
5.1195510325 4.9978930058 4.8979782167 1.3852070904 1.2852923014 1.2630228569 1.1636342747 1.1502619915 1.139116835 
1.0172219679 1.0172219679 1.0172219679 1.0172219679 0.84594095064 0.86392567495 0.87851444325 0.89058134991 0.90072551443 
0.6552068806 0.69407236469 0.72561863695 0.75168694275 0.77356233629 0.79216440667 0.45685295248 0.51573716537 0.56421707518 
0.60464862014 0.63877777351 0.66790778838 0.69302191562 0.26576171152 0.33975332011 0.40226393329 0.45538277901 0.50083690068 
0.54002084522 0.57404952988 0.60381225391 
_paraPhiHalf 1 1002 double
0 3.1415926536 0 3.1415926536 1.5707963268 1.5707963268 1.5707963268 1.5707963268 2.5880182947 
0.5535743589 2.5880182947 0.5535743589 0 0 0 0 3.1415926536 3.1415926536 
3.1415926536 3.1415926536 3.1415926536 0.17788134 0.38438696014 0.60631181711 0.82323535693 1.0172219679 1.1799687454 
1.3118704726 1.4175000338 1.5022335207 0.17788134 0.38438696014 0.60631181711 0.82323535693 1.0172219679 1.1799687454 
1.3118704726 1.4175000338 1.5022335207 0.093902416448 0.17615329733 0.2478725152 0.31035131605 0.36486382811 0.41257334776 
0.45449736604 0.4915044461 0.52432611754 0.093902416448 0.17615329733 0.2478725152 0.31035131605 0.36486382811 0.41257334776 
0.45449736604 0.4915044461 0.52432611754 2.9637113136 2.7572056934 2.5352808365 2.3183572967 2.1243706857 1.9616239082 
1.829722181 1.7240926197 1.6393591329 2.9637113136 2.7572056934 2.5352808365 2.3183572967 2.1243706857 1.9616239082 
1.829722181 1.7240926197 1.6393591329 3.0476902371 2.9654393563 2.8937201384 2.8312413375 2.7767288255 2.7290193058 
2.6870952876 2.6500882075 2.617266536 3.0476902371 2.9654393563 2.8937201384 2.8312413375 2.7767288255 2.7290193058 
2.6870952876 2.6500882075 2.617266536 0 0 0 0 3.1415926536 3.1415926536 
3.1415926536 3.1415926536 3.1415926536 0.17788134 0.38438696014 0.60631181711 0.82323535693 1.0172219679 1.1799687454 
1.3118704726 1.4175000338 1.5022335207 0.17788134 0.38438696014 0.60631181711 0.82323535693 1.0172219679 1.1799687454 
1.3118704726 1.4175000338 1.5022335207 0.093902416448 0.17615329733 0.2478725152 0.31035131605 0.36486382811 0.41257334776 
0.45449736604 0.4915044461 0.52432611754 0.093902416448 0.17615329733 0.2478725152 0.31035131605 0.36486382811 0.41257334776 
0.45449736604 0.4915044461 0.52432611754 2.9637113136 2.7572056934 2.5352808365 2.3183572967 2.1243706857 1.9616239082 
1.829722181 1.7240926197 1.6393591329 2.9637113136 2.7572056934 2.5352808365 2.3183572967 2.1243706857 1.9616239082 
1.829722181 1.7240926197 1.6393591329 3.0476902371 2.9654393563 2.8937201384 2.8312413375 2.7767288255 2.7290193058 
2.6870952876 2.6500882075 2.617266536 3.0476902371 2.9654393563 2.8937201384 2.8312413375 2.7767288255 2.7290193058 
2.6870952876 2.6500882075 2.617266536 1.5707963268 1.5707963268 1.5707963268 1.5707963268 1.5707963268 1.5707963268 
1.5707963268 1.5707963268 1.5707963268 1.6743954455 1.7840462375 1.8974821136 2.0119052671 2.1243706857 2.232221744 
2.3334263672 2.426721652 2.5115728246 1.4671972081 1.3575464161 1.24411054 1.1296873865 1.0172219679 0.90937090954 
0.80816628637 0.71487100155 0.63001982895 1.6743954455 1.7840462375 1.8974821136 2.0119052671 2.1243706857 2.232221744 
2.3334263672 2.426721652 2.5115728246 1.4671972081 1.3575464161 1.24411054 1.1296873865 1.0172219679 0.90937090954 
0.80816628637 0.71487100155 0.63001982895 1.5707963268 1.5707963268 1.5707963268 1.5707963268 1.5707963268 1.5707963268 
1.5707963268 1.5707963268 1.5707963268 1.6743954455 1.7840462375 1.8974821136 2.0119052671 2.1243706857 2.232221744 
2.3334263672 2.426721652 2.5115728246 1.4671972081 1.3575464161 1.24411054 1.1296873865 1.0172219679 0.90937090954 
0.80816628637 0.71487100155 0.63001982895 1.6743954455 1.7840462375 1.8974821136 2.0119052671 2.1243706857 2.232221744 
2.3334263672 2.426721652 2.5115728246 1.4671972081 1.3575464161 1.24411054 1.1296873865 1.0172219679 0.90937090954 
0.80816628637 0.71487100155 0.63001982895 2.6824132222 2.7864913217 2.8992382033 3.0186096618 3.1415926536 3.0186096618 
2.8992382033 2.7864913217 2.6824132222 0.45917943135 0.35510133185 0.2423544503 0.12298299178 0 0.12298299178 
0.2423544503 0.35510133185 0.45917943135 0.22715816343 0.49462574053 0.3129712797 0.77059342779 0.68021497688 0.49462574053 
1.0172219679 1.0172219679 1.0172219679 1.0172219679 1.2156949949 1.271087727 1.3676273807 1.5707963268 2.1243706857 
1.3676273807 1.447813335 1.5707963268 1.7739652728 2.1243706857 2.6469669131 1.4827341049 1.5707963268 1.6937793186 
1.8705049266 2.1243706857 2.4613776767 2.8286213739 1.5707963268 1.6588585487 1.7739652728 1.9258976586 2.1243706857 
2.3709992258 2.6469669131 2.9144344902 0.26576171152 0.33975332011 0.45685295248 0.40226393329 0.51573716537 0.6552068806 
0.45538277901 0.56421707518 0.69407236469 0.84594095064 0.50083690068 0.60464862014 0.72561863695 0.86392567495 1.0172219679 
0.54002084522 0.63877777351 0.75168694275 0.87851444325 1.0172219679 1.1636342747 0.57404952988 0.66790778838 0.77356233629 
0.89058134991 1.0172219679 1.1502619915 1.2852923014 0.60381225391 0.69302191562 0.79216440667 0.90072551443 1.0172219679 
1.139116835 1.2630228569 1.3852070904 0.71487100155 0.80816628637 0.80816628637 0.90937090954 0.90937090954 0.90937090954 
1.0172219679 1.0172219679 1.0172219679 1.0172219679 1.1296873865 1.1296873865 1.1296873865 1.1296873865 1.1296873865 
1.24411054 1.24411054 1.24411054 1.24411054 1.24411054 1.24411054 1.3575464161 1.3575464161 1.3575464161 
1.3575464161 1.3575464161 1.3575464161 1.3575464161 1.4671972081 1.4671972081 1.4671972081 1.4671972081 1.4671972081 
1.4671972081 1.4671972081 1.4671972081 1.6743954455 1.6743954455 1.7840462375 1.6743954455 1.7840462375 1.8974821136 
1.6743954455 1.7840462375 1.8974821136 2.0119052671 1.6743954455 1.7840462375 1.8974821136 2.0119052671 2.1243706857 
1.6743954455 1.7840462375 1.8974821136 2.0119052671 2.1243706857 2.232221744 1.6743954455 1.7840462375 1.8974821136 
2.0119052671 2.1243706857 2.232221744 2.3334263672 1.6743954455 1.7840462375 1.8974821136 2.0119052671 2.1243706857 
2.232221744 2.3334263672 2.426721652 1.7563855631 1.8785697967 1.8563003522 2.0024758186 1.9913306621 1.9779583789 
2.1243706857 2.1243706857 2.1243706857 2.1243706857 2.2408671392 2.2510113037 2.2630782103 2.2776669786 2.295651703 
2.3494282469 2.3680303173 2.3899057108 2.4159740166 2.4475202889 2.486385773 2.448570738 2.4736848652 2.5028148801 
2.5369440334 2.5773755784 2.6258554882 2.6847397011 2.5377803997 2.5675431237 2.6015718084 2.6407557529 2.6862098746 
2.7393287203 2.8018393335 2.8758309421 2.718901062 2.8307207459 2.7598010554 2.95115522 2.8800620952 2.8058000847 
3.0774230472 3.00855263 2.9351694502 2.8576792927 3.0774230472 3.1415926536 3.0719036933 2.9967168029 2.91630358 
2.95115522 3.00855263 3.0719036933 3.1415926536 3.0653475414 2.9825888767 2.8307207459 2.8800620952 2.9351694502 
2.9967168029 3.0653475414 3.1415926536 3.0574329311 2.718901062 2.7598010554 2.8058000847 2.8576792927 2.91630358 
2.9825888767 3.0574329311 3.1415926536 2.718901062 2.7598010554 2.8307207459 2.8058000847 2.8800620952 2.95115522 
2.8576792927 2.9351694502 3.00855263 3.0774230472 2.91630358 2.9967168029 3.0719036933 3.1415926536 3.0774230472 
2.9825888767 3.0653475414 3.1415926536 3.0719036933 3.00855263 2.95115522 3.0574329311 3.1415926536 3.0653475414 