# vtk DataFile Version 5.1
vtk output
ASCII
DATASET POLYDATA
POINTS 1002 float
-10.5131 0.561695 -2.30984 -25.0069 -14.4056 -4.76454 -9.52177 -2.37048 3.98238 
-23.7905 -15.4484 -0.16505 -13.7627 -6.47801 -3.34464 -14.1267 -7.42465 0.0257131 
-21.5038 -2.53941 -0.872 -21.5374 -3.42224 2.96102 -22.2066 -27.4904 -5.49729 
-1.04485 -1.99342 -0.0416252 -28.977 -19.9395 -3.07996 -9.91919 5.3429 2.81832 
-11.5754 -0.0420859 -2.47223 -12.8147 -0.778931 -2.59982 -14.2323 -1.65615 -2.69578 
-15.9476 -2.74343 -2.80114 -18.0512 -4.19608 -3.00103 -20.2501 -6.09784 -3.32859 
-22.0702 -8.29513 -3.72327 -23.374 -10.5094 -4.11575 -24.3109 -12.5615 -4.46681 
-10.3074 0.0319138 -2.58145 -10.1698 -0.52637 -2.88668 -10.0601 -1.12453 -3.19668 
-9.98333 -1.8887 -3.46097 -10.044 -2.86311 -3.66718 -10.3402 -3.88302 -3.82002 
-10.8935 -4.78261 -3.87456 -11.689 -5.50694 -3.78787 -12.6789 -6.05128 -3.58764 
-11.4256 0.699259 -2.15763 -12.4688 0.741839 -1.99199 -13.5934 0.638852 -1.792 
-14.7756 0.383659 -1.5488 -16.0383 0.00435955 -1.32272 -17.3241 -0.447314 -1.15899 
-18.515 -0.935481 -1.03444 -19.5945 -1.45657 -0.953836 -20.5984 -1.9983 -0.917401 
-9.34801 0.780227 -2.27476 -8.10142 0.972512 -2.21455 -6.7924 1.09405 -2.13329 
-5.42397 1.04044 -2.00766 -4.06735 0.78365 -1.83561 -2.93138 0.402339 -1.6482 
-2.11644 -0.0849131 -1.39501 -1.5282 -0.696 -1.00417 -1.14766 -1.3631 -0.521855 
-10.0953 1.20572 -2.00259 -9.72573 1.84242 -1.61405 -9.38227 2.52247 -1.20311 
-9.12366 3.27025 -0.791052 -9.01767 3.92854 -0.252893 -9.02042 4.39716 0.409055 
-9.11566 4.80481 1.01437 -9.34398 5.18466 1.56964 -9.64665 5.38547 2.18556 
-24.4902 -14.2007 -4.81042 -23.9063 -13.8176 -4.83174 -23.194 -13.3033 -4.76462 
-22.3211 -12.6116 -4.57644 -21.3239 -11.5757 -4.28309 -20.1872 -10.1683 -3.92739 
-18.8177 -8.65381 -3.59099 -17.1918 -7.40889 -3.3706 -15.4366 -6.68236 -3.30331 
-25.1087 -13.3343 -4.54066 -25.1199 -12.0945 -4.2745 -24.9712 -10.7662 -3.93173 
-24.655 -9.37409 -3.50623 -24.2043 -7.9491 -3.0245 -23.6534 -6.6178 -2.51886 
-23.0713 -5.44191 -2.03494 -22.5149 -4.36522 -1.61212 -21.9908 -3.38088 -1.23783 
-25.25 -16.1644 -5.08248 -25.381 -18.082 -5.44867 -25.3515 -20.0992 -5.87005 
-25.0881 -22.1012 -6.29237 -24.5937 -23.9515 -6.62191 -24.0107 -25.5074 -6.81959 
-23.4431 -26.6534 -6.84125 -22.8972 -27.3511 -6.59273 -22.4476 -27.6151 -6.0943 
-25.6768 -15.5424 -4.91904 -26.3134 -16.6354 -5.09355 -26.9077 -17.716 -5.23914 
-27.4305 -18.8126 -5.25461 -27.8027 -19.7567 -5.09137 -28.1027 -20.3441 -4.82 
-28.471 -20.5782 -4.49206 -28.8093 -20.5445 -4.07585 -28.9691 -20.3055 -3.5815 
-10.6309 -2.92516 3.83896 -11.9495 -3.49884 3.63397 -13.5596 -4.10672 3.34838 
-15.4681 -4.90731 2.91633 -17.5165 -6.08342 2.34854 -19.4554 -7.66375 1.73368 
-21.0689 -9.54934 1.12722 -22.2718 -11.5817 0.587951 -23.1368 -13.5853 0.166763 
-9.46991 -2.87319 3.64089 -9.44821 -3.51152 3.30076 -9.52275 -4.23361 2.98003 
-9.75317 -4.90697 2.61293 -10.1857 -5.49526 2.16222 -10.8278 -6.02447 1.69087 
-11.5887 -6.45 1.24322 -12.3949 -6.76342 0.803981 -13.2502 -7.06146 0.386605 
-10.293 -2.27083 4.21656 -11.295 -2.19746 4.39344 -12.5674 -2.12192 4.50644 
-14.0197 -2.06367 4.53022 -15.5409 -2.07904 4.43585 -17.0468 -2.19494 4.25336 
-18.4023 -2.40596 4.0008 -19.5569 -2.70051 3.66755 -20.593 -3.04982 3.30193 
-8.44121 -2.14344 3.84226 -7.30281 -1.98695 3.61787 -6.11029 -1.88275 3.35924 
-4.96194 -1.79013 3.06379 -3.95352 -1.74052 2.67298 -3.02983 -1.77186 2.23913 
-2.16481 -1.84083 1.82073 -1.49163 -1.90479 1.31062 -1.11812 -1.95796 0.649242 
-8.89885 -1.70289 4.22083 -8.25795 -0.850405 4.37103 -7.70742 0.238355 4.46482 
-7.39851 1.47568 4.54861 -7.40999 2.67292 4.5024 -7.68449 3.66564 4.28004 
-8.14513 4.40106 4.04249 -8.74547 4.91815 3.78391 -9.37778 5.23707 3.36301 
-23.298 -14.9815 -0.231369 -22.7445 -14.2979 -0.329667 -22.0486 -13.4585 -0.353183 
-21.2019 -12.4886 -0.286437 -20.2546 -11.4173 -0.169342 -19.1749 -10.3405 -0.00400425 
-17.9378 -9.32107 0.140302 -16.6379 -8.42225 0.176856 -15.3602 -7.77234 0.123246 
-23.9168 -14.6195 0.0456889 -24.0289 -13.6236 0.276829 -24.0914 -12.4821 0.588141 
-24.0696 -11.239 0.976651 -23.9331 -9.91915 1.36772 -23.6425 -8.53611 1.73508 
-23.1902 -7.12218 2.0916 -22.6441 -5.74717 2.42144 -22.0818 -4.49905 2.71238 
-24.0498 -17.1368 -0.504284 -24.2485 -19.0677 -0.895062 -24.3212 -21.0964 -1.32539 
-24.1948 -22.9462 -1.79518 -23.9216 -24.476 -2.38392 -23.5862 -25.7766 -3.07282 
-23.1269 -26.8646 -3.73073 -22.5861 -27.5666 -4.35605 -22.2301 -27.7554 -4.97718 
-24.4883 -16.755 -0.384142 -25.2469 -18.0241 -0.646756 -25.9733 -19.22 -0.85555 
-26.611 -20.2011 -1.0503 -27.2005 -20.8056 -1.36853 -27.7177 -21.0418 -1.76451 
-28.1055 -20.9906 -2.11697 -28.4284 -20.725 -2.44092 -28.7375 -20.3552 -2.76958 
-13.487 -6.74012 -3.21228 -13.2944 -7.02231 -3.03103 -13.1976 -7.32272 -2.79087 
-13.1563 -7.58443 -2.45134 -13.1625 -7.71868 -1.99439 -13.2406 -7.74149 -1.47583 
-13.4012 -7.72754 -0.98724 -13.6357 -7.66932 -0.583797 -13.8954 -7.55222 -0.2584 
-15.9305 -7.22553 -3.14482 -17.9896 -9.00712 -3.24994 -19.6321 -11.8126 -3.63542 
-20.9342 -14.9456 -4.0495 -21.9051 -17.8883 -4.41154 -22.3891 -20.5799 -4.78042 
-22.521 -22.8932 -5.09613 -22.4977 -24.7605 -5.33212 -22.3508 -26.292 -5.49295 
-11.5433 -6.45287 -3.59229 -9.62587 -6.52395 -3.69524 -8.08306 -6.3013 -3.48613 
-6.68237 -5.83519 -3.10074 -5.40372 -5.25623 -2.65282 -4.30309 -4.56437 -2.10491 
-3.19827 -3.87834 -1.55979 -2.12109 -3.26327 -1.10139 -1.36783 -2.63798 -0.615866 
-15.8049 -8.19266 -0.27398 -17.4681 -9.53431 -0.701516 -18.9134 -11.5549 -1.26851 
-20.1664 -14.2226 -1.86033 -21.2624 -17.222 -2.37607 -21.9598 -20.0786 -2.90254 
-22.18 -22.5698 -3.5518 -22.1902 -24.6832 -4.26234 -22.1778 -26.3419 -4.92145 
-12.2913 -7.1305 0.0955979 -10.3358 -7.11012 0.164086 -8.37826 -7.17326 0.285553 
-6.57404 -7.09839 0.428971 -5.09398 -6.71927 0.484435 -3.94226 -6.00585 0.403543 
-2.94203 -5.07917 0.260081 -2.02843 -4.06298 0.138823 -1.35282 -3.01483 0.0472506 
-21.7297 -2.41358 -0.558521 -21.9185 -2.31707 -0.161628 -22.0635 -2.2167 0.289182 
-22.1892 -2.06088 0.788118 -22.258 -1.91735 1.34326 -22.1876 -1.9678 1.8997 
-22.0257 -2.25198 2.36519 -21.8772 -2.63784 2.68691 -21.7306 -3.03384 2.87006 
-22.6706 -3.65746 -1.02589 -23.9011 -5.01885 -1.19242 -25.1629 -6.59204 -1.42309 
-26.4005 -8.26944 -1.74503 -27.5463 -10.1116 -2.1801 -28.5015 -12.3613 -2.65926 
-29.1168 -14.8709 -2.9833 -29.3203 -17.0753 -3.07917 -29.2157 -18.7049 -3.07593 
-20.4644 -1.44627 -0.495039 -19.3251 -0.365407 -0.0257753 -18.1167 0.689876 0.461686 
-16.8672 1.71189 0.87648 -15.6048 2.6852 1.24334 -14.3741 3.56306 1.61705 
-13.1915 4.27902 1.95254 -12.0489 4.79785 2.23119 -10.9567 5.14041 2.51565 
-22.7803 -4.54438 2.45939 -24.0252 -6.00849 1.846 -25.2985 -7.84035 1.15935 
-26.6477 -9.87057 0.546519 -27.8443 -11.93 0.0182807 -28.6424 -13.9669 -0.586614 
-29.0743 -15.861 -1.29481 -29.2082 -17.464 -1.97718 -29.1205 -18.7866 -2.56472 
-20.422 -2.17253 3.40319 -19.2859 -0.860538 3.86681 -18.1377 0.414558 4.25457 
-16.871 1.50591 4.44575 -15.4919 2.50922 4.47946 -14.1639 3.51422 4.41985 
-12.9554 4.29923 4.17199 -11.844 4.76368 3.73186 -10.8317 5.07955 3.25409 
-22.3545 -28.5464 -5.69842 -23.0585 -29.2097 -5.7046 -24.4071 -29.2543 -5.53348 
-25.7739 -28.6151 -5.28466 -26.6372 -27.5219 -4.97307 -27.3257 -26.2317 -4.58332 
-28.0497 -24.7597 -4.18176 -28.5281 -23.0962 -3.79802 -28.7608 -21.4244 -3.42101 
-1.02695 -0.94314 0.294845 -1.25783 0.174344 0.647296 -1.68255 1.35427 0.945037 
-2.3314 2.55196 1.15823 -3.21936 3.61128 1.34353 -4.36021 4.48183 1.62178 
-5.76849 5.17312 2.04124 -7.27973 5.54085 2.45593 -8.68254 5.53769 2.70727 
-11.4886 -0.612976 -2.77061 -11.4863 -1.20082 -3.111 -12.8161 -1.38548 -2.90469 
-11.5376 -1.88092 -3.40687 -12.9381 -2.06317 -3.21006 -14.3391 -2.33621 -2.93847 
-11.6436 -2.75993 -3.60313 -13.2313 -2.87539 -3.42862 -14.6645 -3.15615 -3.14172 
-16.3162 -3.58065 -2.9733 -11.8816 -3.74271 -3.72382 -13.6912 -3.76772 -3.5589 
-15.3113 -4.06046 -3.31929 -16.9447 -4.5972 -3.14038 -18.7395 -5.31457 -3.19617 
-12.3967 -4.6252 -3.74684 -14.3235 -4.62844 -3.59207 -16.1888 -4.97877 -3.4697 
-17.8331 -5.71846 -3.37709 -19.511 -6.65458 -3.42959 -21.0153 -7.55762 -3.60944 
-13.2633 -5.35794 -3.63719 -15.1971 -5.47902 -3.50143 -17.1458 -6.03144 -3.51079 
-18.794 -7.02149 -3.61509 -20.2755 -8.17705 -3.74826 -21.633 -9.19609 -3.92522 
-22.6532 -9.96748 -4.07006 -14.3499 -6.01782 -3.46104 -16.2308 -6.40208 -3.3923 
-18.067 -7.29762 -3.50341 -19.615 -8.5758 -3.77224 -20.9074 -9.88288 -4.05594 
-22.0674 -10.9202 -4.28072 -23.0201 -11.6661 -4.42849 -23.7282 -12.2045 -4.47955 
-9.04679 0.222237 -2.56713 -7.71473 0.356891 -2.52893 -8.78519 -0.395511 -2.87137 
-6.37075 0.352824 -2.43706 -7.3818 -0.394794 -2.82854 -8.5689 -1.1292 -3.17118 
-5.02007 0.127156 -2.23703 -6.07702 -0.579198 -2.69063 -7.20291 -1.33514 -3.10055 
-8.52814 -2.06377 -3.43602 -3.76792 -0.272046 -1.99856 -4.8518 -0.945949 -2.43305 
-6.02225 -1.69462 -2.91043 -7.34207 -2.41365 -3.3189 -8.79064 -3.1236 -3.64443 
-2.79484 -0.761796 -1.77959 -3.80571 -1.43751 -2.16951 -4.94412 -2.16688 -2.64569 
-6.26368 -2.87708 -3.0876 -7.78868 -3.50315 -3.47063 -9.27563 -4.18003 -3.79441 
-2.08276 -1.34844 -1.47815 -3.03313 -2.01681 -1.87864 -4.11833 -2.73039 -2.35548 
-5.27887 -3.45207 -2.83322 -6.7582 -4.04568 -3.21452 -8.33869 -4.62174 -3.59881 
-9.85823 -5.17404 -3.86197 -1.58104 -2.00493 -1.06321 -2.46409 -2.64898 -1.49734 
-3.5774 -3.3208 -1.97001 -4.65256 -4.04931 -2.51602 -5.88997 -4.69252 -2.96738 
-7.39132 -5.2312 -3.35093 -8.90739 -5.7176 -3.70476 -10.586 -5.96907 -3.79785 
-1.89037 -3.69601 -0.559771 -2.74428 -4.76059 -0.520184 -2.81928 -4.32765 -1.10301 
-3.68971 -5.8283 -0.412585 -3.68395 -5.44783 -1.13319 -3.9339 -4.99277 -1.64075 
-4.68394 -6.78309 -0.210162 -4.56919 -6.60653 -1.0304 -4.74332 -6.19852 -1.70709 
-5.07386 -5.7272 -2.22668 -6.0087 -7.34968 -0.0749559 -5.69726 -7.48372 -0.792392 
-5.69266 -7.31961 -1.59117 -5.96478 -6.88683 -2.27524 -6.30965 -6.38082 -2.77848 
[...]
POINT_DATA 1002
FIELD FieldData 4
_paraPhi 1 1002 double
6.2831853072 3.1415926536 6.2831853072 3.1415926536 4.7123889804 4.7123889804 1.5707963268 1.5707963268 3.6951670125 
5.7296109483 2.5880182947 0.5535743589 6.2831853072 6.2831853072 6.2831853072 6.2831853072 3.1415926536 3.1415926536 
3.1415926536 3.1415926536 3.1415926536 6.1053039672 5.898798347 5.6768734901 5.4599499503 5.2659633393 5.1032165617 
4.9713148346 4.8656852733 4.7809517865 0.17788134 0.38438696014 0.60631181711 0.82323535693 1.0172219679 1.1799687454 
1.3118704726 1.4175000338 1.5022335207 6.1892828907 6.1070320098 6.035312792 5.9728339911 5.9183214791 5.8706119594 
5.8286879411 5.7916808611 5.7588591896 0.093902416448 0.17615329733 0.2478725152 0.31035131605 0.36486382811 0.41257334776 
0.45449736604 0.4915044461 0.52432611754 3.3194739936 3.5259796137 3.7479044707 3.9648280105 4.1588146215 4.321561399 
4.4534631262 4.5590926874 4.6438261743 2.9637113136 2.7572056934 2.5352808365 2.3183572967 2.1243706857 1.9616239082 
1.829722181 1.7240926197 1.6393591329 3.23549507 3.3177459509 3.3894651688 3.4519439696 3.5064564817 3.5541660013 
3.5960900196 3.6330970997 3.6659187711 3.0476902371 2.9654393563 2.8937201384 2.8312413375 2.7767288255 2.7290193058 
2.6870952876 2.6500882075 2.617266536 6.2831853072 6.2831853072 6.2831853072 6.2831853072 3.1415926536 3.1415926536 
3.1415926536 3.1415926536 3.1415926536 6.1053039672 5.898798347 5.6768734901 5.4599499503 5.2659633393 5.1032165617 
4.9713148346 4.8656852733 4.7809517865 0.17788134 0.38438696014 0.60631181711 0.82323535693 1.0172219679 1.1799687454 
1.3118704726 1.4175000338 1.5022335207 6.1892828907 6.1070320098 6.035312792 5.9728339911 5.9183214791 5.8706119594 
5.8286879411 5.7916808611 5.7588591896 0.093902416448 0.17615329733 0.2478725152 0.31035131605 0.36486382811 0.41257334776 
0.45449736604 0.4915044461 0.52432611754 3.3194739936 3.5259796137 3.7479044707 3.9648280105 4.1588146215 4.321561399 
4.4534631262 4.5590926874 4.6438261743 2.9637113136 2.7572056934 2.5352808365 2.3183572967 2.1243706857 1.9616239082 
1.829722181 1.7240926197 1.6393591329 3.23549507 3.3177459509 3.3894651688 3.4519439696 3.5064564817 3.5541660013 
3.5960900196 3.6330970997 3.6659187711 3.0476902371 2.9654393563 2.8937201384 2.8312413375 2.7767288255 2.7290193058 
2.6870952876 2.6500882075 2.617266536 4.7123889804 4.7123889804 4.7123889804 4.7123889804 4.7123889804 4.7123889804 
4.7123889804 4.7123889804 4.7123889804 4.6087898617 4.4991390697 4.3857031936 4.2712800401 4.1588146215 4.0509635631 
3.94975894 3.8564636551 3.7716124825 4.8159880991 4.9256388911 5.0390747672 5.1534979207 5.2659633393 5.3738143976 
5.4750190208 5.5683143056 5.6531654782 4.6087898617 4.4991390697 4.3857031936 4.2712800401 4.1588146215 4.0509635631 
3.94975894 3.8564636551 3.7716124825 4.8159880991 4.9256388911 5.0390747672 5.1534979207 5.2659633393 5.3738143976 
5.4750190208 5.5683143056 5.6531654782 1.5707963268 1.5707963268 1.5707963268 1.5707963268 1.5707963268 1.5707963268 
1.5707963268 1.5707963268 1.5707963268 1.6743954455 1.7840462375 1.8974821136 2.0119052671 2.1243706857 2.232221744 
2.3334263672 2.426721652 2.5115728246 1.4671972081 1.3575464161 1.24411054 1.1296873865 1.0172219679 0.90937090954 
0.80816628637 0.71487100155 0.63001982895 1.6743954455 1.7840462375 1.8974821136 2.0119052671 2.1243706857 2.232221744 
2.3334263672 2.426721652 2.5115728246 1.4671972081 1.3575464161 1.24411054 1.1296873865 1.0172219679 0.90937090954 
0.80816628637 0.71487100155 0.63001982895 3.6007720849 3.4966939854 3.3839471039 3.2645756454 3.1415926536 3.0186096618 
2.8992382033 2.7864913217 2.6824132222 5.8240058758 5.9280839753 6.0408308569 6.1602023154 6.2831853072 0.12298299178 
0.2423544503 0.35510133185 0.45917943135 6.0560271438 5.7885595667 5.9702140275 5.5125918794 5.6029703303 5.7885595667 
5.2659633393 5.2659633393 5.2659633393 5.2659633393 5.0674903122 5.0120975802 4.9155579264 4.7123889804 4.1588146215 
4.9155579264 4.8353719722 4.7123889804 4.5092200343 4.1588146215 3.6362183941 4.8004512023 4.7123889804 4.5894059886 
4.4126803806 4.1588146215 3.8218076305 3.4545639333 4.7123889804 4.6243267584 4.5092200343 4.3572876485 4.1588146215 
3.9121860814 3.6362183941 3.368750817 6.0174235957 5.9434319871 5.8263323547 5.8809213739 5.7674481418 5.6279784266 
5.8278025282 5.718968232 5.5891129425 5.4372443565 5.7823484065 5.678536687 5.5575666702 5.4192596322 5.2659633393 
5.743164462 5.6444075337 5.5314983644 5.4046708639 5.2659633393 5.1195510325 5.7091357773 5.6152775188 5.5096229709 
5.3926039573 5.2659633393 5.1329233157 4.9978930058 5.6793730533 5.5901633916 5.4910209005 5.3824597928 5.2659633393 
5.1440684722 5.0201624502 4.8979782167 5.5683143056 5.4750190208 5.4750190208 5.3738143976 5.3738143976 5.3738143976 
5.2659633393 5.2659633393 5.2659633393 5.2659633393 5.1534979207 5.1534979207 5.1534979207 5.1534979207 5.1534979207 
5.0390747672 5.0390747672 5.0390747672 5.0390747672 5.0390747672 5.0390747672 4.9256388911 4.9256388911 4.9256388911 
4.9256388911 4.9256388911 4.9256388911 4.9256388911 4.8159880991 4.8159880991 4.8159880991 4.8159880991 4.8159880991 
4.8159880991 4.8159880991 4.8159880991 4.6087898617 4.6087898617 4.4991390697 4.6087898617 4.4991390697 4.3857031936 
4.6087898617 4.4991390697 4.3857031936 4.2712800401 4.6087898617 4.4991390697 4.3857031936 4.2712800401 4.1588146215 
4.6087898617 4.4991390697 4.3857031936 4.2712800401 4.1588146215 4.0509635631 4.6087898617 4.4991390697 4.3857031936 
4.2712800401 4.1588146215 4.0509635631 3.94975894 4.6087898617 4.4991390697 4.3857031936 4.2712800401 4.1588146215 
4.0509635631 3.94975894 3.8564636551 4.526799744 4.4046155105 4.426884955 4.2807094886 4.2918546451 4.3052269283 
4.1588146215 4.1588146215 4.1588146215 4.1588146215 4.042318168 4.0321740035 4.0201070968 4.0055183285 3.9875336042 
3.9337570603 3.9151549899 3.8932795963 3.8672112905 3.8356650183 3.7967995342 3.8346145692 3.809500442 3.7803704271 
3.7462412737 3.7058097288 3.657329819 3.5984456061 3.7454049075 3.7156421835 3.6816134988 3.6424295543 3.5969754326 
3.5438565869 3.4813459737 3.4073543651 3.5642842451 3.4524645613 3.5233842518 3.3320300872 3.403123212 3.4773852225 
3.20576226 3.2746326772 3.348015857 3.4255060145 3.0774230472 3.1415926536 3.2112816139 3.2864685043 3.3668817272 
2.95115522 3.00855263 3.0719036933 3.1415926536 3.2178377658 3.3005964304 2.8307207459 2.8800620952 2.9351694502 
2.9967168029 3.0653475414 3.1415926536 3.225752376 2.718901062 2.7598010554 2.8058000847 2.8576792927 2.91630358 
2.9825888767 3.0574329311 3.1415926536 3.5642842451 3.5233842518 3.4524645613 3.4773852225 3.403123212 3.3320300872 
3.4255060145 3.348015857 3.2746326772 3.20576226 3.3668817272 3.2864685043 3.2112816139 3.1415926536 3.0774230472 
3.3005964304 3.2178377658 3.1415926536 3.0719036933 3.00855263 2.95115522 3.225752376 3.1415926536 3.0653475414 
2.9967168029 2.9351694502 2.8800620952 2.8307207459 3.1415926536 3.0574329311 2.9825888767 2.91630358 2.8576792927 
2.8058000847 2.7598010554 2.718901062 4.526799744 4.426884955 4.4046155105 4.3052269283 4.2918546451 4.2807094886 
4.1588146215 4.1588146215 4.1588146215 4.1588146215 3.9875336042 4.0055183285 4.0201070968 4.0321740035 4.042318168 
3.7967995342 3.8356650183 3.8672112905 3.8932795963 3.9151549899 3.9337570603 3.5984456061 3.657329819 3.7058097288 
3.7462412737 3.7803704271 3.809500442 3.8346145692 3.4073543651 3.4813459737 3.5438565869 3.5969754326 3.6424295543 
3.6816134988 3.7156421835 3.7454049075 4.7123889804 4.8004512023 4.6243267584 4.9155579264 4.7123889804 4.5092200343 
5.0674903122 4.8353719722 4.5894059886 4.3572876485 5.2659633393 5.0120975802 4.7123889804 4.4126803806 4.1588146215 
5.5125918794 5.2659633393 4.9155579264 4.5092200343 4.1588146215 3.9121860814 5.7885595667 5.6029703303 5.2659633393 
4.7123889804 4.1588146215 3.8218076305 3.6362183941 6.0560271438 5.9702140275 5.7885595667 5.2659633393 4.1588146215 
3.6362183941 3.4545639333 3.368750817 0.22715816343 0.49462574053 0.3129712797 0.77059342779 0.68021497688 0.49462574053 
1.0172219679 1.0172219679 1.0172219679 1.0172219679 1.2156949949 1.271087727 1.3676273807 1.5707963268 2.1243706857 
1.3676273807 1.447813335 1.5707963268 1.7739652728 2.1243706857 2.6469669131 1.4827341049 1.5707963268 1.6937793186 
1.8705049266 2.1243706857 2.4613776767 2.8286213739 1.5707963268 1.6588585487 1.7739652728 1.9258976586 2.1243706857 
2.3709992258 2.6469669131 2.9144344902 1.7563855631 1.8785697967 1.8563003522 2.0024758186 1.9913306621 1.9779583789 
2.1243706857 2.1243706857 2.1243706857 2.1243706857 2.2408671392 2.2510113037 2.2630782103 2.2776669786 2.295651703 
2.3494282469 2.3680303173 2.3899057108 2.4159740166 2.4475202889 2.486385773 2.448570738 2.4736848652 2.5028148801 
2.5369440334 2.5773755784 2.6258554882 2.6847397011 2.5377803997 2.5675431237 2.6015718084 2.6407557529 2.6862098746 
2.7393287203 2.8018393335 2.8758309421 1.6743954455 1.6743954455 1.7840462375 1.6743954455 1.7840462375 1.8974821136 
1.6743954455 1.7840462375 1.8974821136 2.0119052671 1.6743954455 1.7840462375 1.8974821136 2.0119052671 2.1243706857 
1.6743954455 1.7840462375 1.8974821136 2.0119052671 2.1243706857 2.232221744 1.6743954455 1.7840462375 1.8974821136 
2.0119052671 2.1243706857 2.232221744 2.3334263672 1.6743954455 1.7840462375 1.8974821136 2.0119052671 2.1243706857 
2.232221744 2.3334263672 2.426721652 1.4671972081 1.3575464161 1.4671972081 1.24411054 1.3575464161 1.4671972081 
1.1296873865 1.24411054 1.3575464161 1.4671972081 1.0172219679 1.1296873865 1.24411054 1.3575464161 1.4671972081 
0.90937090954 1.0172219679 1.1296873865 1.24411054 1.3575464161 1.4671972081 0.80816628637 0.90937090954 1.0172219679 
1.1296873865 1.24411054 1.3575464161 1.4671972081 0.71487100155 0.80816628637 0.90937090954 1.0172219679 1.1296873865 
1.24411054 1.3575464161 1.4671972081 0.60381225391 0.57404952988 0.69302191562 0.54002084522 0.66790778838 0.79216440667 
0.50083690068 0.63877777351 0.77356233629 0.90072551443 0.45538277901 0.60464862014 0.75168694275 0.89058134991 1.0172219679 
0.40226393329 0.56421707518 0.72561863695 0.87851444325 1.0172219679 1.139116835 0.33975332011 0.51573716537 0.69407236469 
0.86392567495 1.0172219679 1.1502619915 1.2630228569 0.26576171152 0.45685295248 0.6552068806 0.84594095064 1.0172219679 
1.1636342747 1.2852923014 1.3852070904 0.22715816343 0.3129712797 0.49462574053 0.49462574053 0.68021497688 0.77059342779 
1.0172219679 1.0172219679 1.0172219679 1.0172219679 2.1243706857 1.5707963268 1.3676273807 1.271087727 1.2156949949 
2.6469669131 2.1243706857 1.7739652728 1.5707963268 1.447813335 1.3676273807 2.8286213739 2.4613776767 2.1243706857 
1.8705049266 1.6937793186 1.5707963268 1.4827341049 2.9144344902 2.6469669131 2.3709992258 2.1243706857 1.9258976586 
1.7739652728 1.6588585487 1.5707963268 1.7563855631 1.8563003522 1.8785697967 1.9779583789 1.9913306621 2.0024758186 
2.1243706857 2.1243706857 2.1243706857 2.1243706857 2.295651703 2.2776669786 2.2630782103 2.2510113037 2.2408671392 
2.486385773 2.4475202889 2.4159740166 2.3899057108 2.3680303173 2.3494282469 2.6847397011 2.6258554882 2.5773755784 
2.5369440334 2.5028148801 2.4736848652 2.448570738 2.8758309421 2.8018393335 2.7393287203 2.6862098746 2.6407557529 
2.6015718084 2.5675431237 2.5377803997 5.8604937156 5.901393709 5.9723133995 5.9473927383 6.0216547488 6.0927478736 
5.9992719463 6.0767621038 6.1501452836 6.2190157008 6.0578962336 6.1383094565 6.2134963469 0 0.064169606361 
6.1241815303 6.206940195 6.2831853072 0.069688960264 0.13304002361 0.19043743361 6.1990255847 0 0.07624511221 
0.14487585072 0.20642320337 0.26153055843 0.3108719077 0 0.084159722458 0.15900377685 0.22528907359 0.28391336087 
0.3357925689 0.38179159818 0.42269159155 5.8604937156 5.9723133995 5.901393709 6.0927478736 6.0216547488 5.9473927383 
6.2190157008 6.1501452836 6.0767621038 5.9992719463 0.064169606361 0 6.2134963469 6.1383094565 6.0578962336 
0.19043743361 0.13304002361 0.069688960264 6.2831853072 6.206940195 6.1241815303 0.3108719077 0.26153055843 0.20642320337 
0.14487585072 0.07624511221 6.2831853072 6.1990255847 0.42269159155 0.38179159818 0.3357925689 0.28391336087 0.22528907359 
0.15900377685 0.084159722458 0 5.6793730533 5.7091357773 5.5901633916 5.743164462 5.6152775188 5.4910209005 
5.7823484065 5.6444075337 5.5096229709 5.3824597928 5.8278025282 5.678536687 5.5314983644 5.3926039573 5.2659633393 
5.8809213739 5.718968232 5.5575666702 5.4046708639 5.2659633393 5.1440684722 5.9434319871 5.7674481418 5.5891129425 
5.4192596322 5.2659633393 5.1329233157 5.0201624502 6.0174235957 5.8263323547 5.6279784266 5.4372443565 5.2659633393 
5.1195510325 4.9978930058 4.8979782167 1.3852070904 1.2852923014 1.2630228569 1.1636342747 1.1502619915 1.139116835 
1.0172219679 1.0172219679 1.0172219679 1.0172219679 0.84594095064 0.86392567495 0.87851444325 0.89058134991 0.90072551443 
0.6552068806 0.69407236469 0.72561863695 0.75168694275 0.77356233629 0.79216440667 0.45685295248 0.51573716537 0.56421707518 
0.60464862014 0.63877777351 0.66790778838 0.69302191562 0.26576171152 0.33975332011 0.40226393329 0.45538277901 0.50083690068 
0.54002084522 0.57404952988 0.60381225391 
_paraPhiHalf 1 1002 double
0 3.1415926536 0 3.1415926536 1.5707963268 1.5707963268 1.5707963268 1.5707963268 2.5880182947 
0.5535743589 2.5880182947 0.5535743589 0 0 0 0 3.1415926536 3.1415926536 
3.1415926536 3.1415926536 3.1415926536 0.17788134 0.38438696014 0.60631181711 0.82323535693 1.0172219679 1.1799687454 
1.3118704726 1.4175000338 1.5022335207 0.17788134 0.38438696014 0.60631181711 0.82323535693 1.0172219679 1.1799687454 
1.3118704726 1.4175000338 1.5022335207 0.093902416448 0.17615329733 0.2478725152 0.31035131605 0.36486382811 0.41257334776 
0.45449736604 0.4915044461 0.52432611754 0.093902416448 0.17615329733 0.2478725152 0.31035131605 0.36486382811 0.41257334776 
0.45449736604 0.4915044461 0.52432611754 2.9637113136 2.7572056934 2.5352808365 2.3183572967 2.1243706857 1.9616239082 
1.829722181 1.7240926197 1.6393591329 2.9637113136 2.7572056934 2.5352808365 2.3183572967 2.1243706857 1.9616239082 
1.829722181 1.7240926197 1.6393591329 3.0476902371 2.9654393563 2.8937201384 2.8312413375 2.7767288255 2.7290193058 
2.6870952876 2.6500882075 2.617266536 3.0476902371 2.9654393563 2.8937201384 2.8312413375 2.7767288255 2.7290193058 
2.6870952876 2.6500882075 2.617266536 0 0 0 0 3.1415926536 3.1415926536 
3.1415926536 3.1415926536 3.1415926536 0.17788134 0.38438696014 0.60631181711 0.82323535693 1.0172219679 1.1799687454 
1.3118704726 1.4175000338 1.5022335207 0.17788134 0.38438696014 0.60631181711 0.82323535693 1.0172219679 1.1799687454 
1.3118704726 1.4175000338 1.5022335207 0.093902416448 0.17615329733 0.2478725152 0.31035131605 0.36486382811 0.41257334776 
0.45449736604 0.4915044461 0.52432611754 0.093902416448 0.17615329733 0.2478725152 0.31035131605 0.36486382811 0.41257334776 
0.45449736604 0.4915044461 0.52432611754 2.9637113136 2.7572056934 2.5352808365 2.3183572967 2.1243706857 1.9616239082 
1.829722181 1.7240926197 1.6393591329 2.9637113136 2.7572056934 2.5352808365 2.3183572967 2.1243706857 1.9616239082 
1.829722181 1.7240926197 1.6393591329 3.0476902371 2.9654393563 2.8937201384 2.8312413375 2.7767288255 2.7290193058 
2.6870952876 2.6500882075 2.617266536 3.0476902371 2.9654393563 2.8937201384 2.8312413375 2.7767288255 2.7290193058 
2.6870952876 2.6500882075 2.617266536 1.5707963268 1.5707963268 1.5707963268 1.5707963268 1.5707963268 1.5707963268 
1.5707963268 1.5707963268 1.5707963268 1.6743954455 1.7840462375 1.8974821136 2.0119052671 2.1243706857 2.232221744 
2.3334263672 2.426721652 2.5115728246 1.4671972081 1.3575464161 1.24411054 1.1296873865 1.0172219679 0.90937090954 
0.80816628637 0.71487100155 0.63001982895 1.6743954455 1.7840462375 1.8974821136 2.0119052671 2.1243706857 2.232221744 
2.3334263672 2.426721652 2.5115728246 1.4671972081 1.3575464161 1.24411054 1.1296873865 1.0172219679 0.90937090954 
0.80816628637 0.71487100155 0.63001982895 1.5707963268 1.5707963268 1.5707963268 1.5707963268 1.5707963268 1.5707963268 
1.5707963268 1.5707963268 1.5707963268 1.6743954455 1.7840462375 1.8974821136 2.0119052671 2.1243706857 2.232221744 
2.3334263672 2.426721652 2.5115728246 1.4671972081 1.3575464161 1.24411054 1.1296873865 1.0172219679 0.90937090954 
0.80816628637 0.71487100155 0.63001982895 1.6743954455 1.7840462375 1.8974821136 2.0119052671 2.1243706857 2.232221744 
2.3334263672 2.426721652 2.5115728246 1.4671972081 1.3575464161 1.24411054 1.1296873865 1.0172219679 0.90937090954 
0.80816628637 0.71487100155 0.63001982895 2.6824132222 2.7864913217 2.8992382033 3.0186096618 3.1415926536 3.0186096618 
2.8992382033 2.7864913217 2.6824132222 0.45917943135 0.35510133185 0.2423544503 0.12298299178 0 0.12298299178 
0.2423544503 0.35510133185 0.45917943135 0.22715816343 0.49462574053 0.3129712797 0.77059342779 0.68021497688 0.49462574053 
1.0172219679 1.0172219679 1.0172219679 1.0172219679 1.2156949949 1.271087727 1.3676273807 1.5707963268 2.1243706857 
1.3676273807 1.447813335 1.5707963268 1.7739652728 2.1243706857 2.6469669131 1.4827341049 1.5707963268 1.6937793186 
1.8705049266 2.1243706857 2.4613776767 2.8286213739 1.5707963268 1.6588585487 1.7739652728 1.9258976586 2.1243706857 
2.3709992258 2.6469669131 2.9144344902 0.26576171152 0.33975332011 0.45685295248 0.40226393329 0.51573716537 0.6552068806 
0.45538277901 0.56421707518 0.69407236469 0.84594095064 0.50083690068 0.60464862014 0.72561863695 0.86392567495 1.0172219679 
0.54002084522 0.63877777351 0.75168694275 0.87851444325 1.0172219679 1.1636342747 0.57404952988 0.66790778838 0.77356233629 
0.89058134991 1.0172219679 1.1502619915 1.2852923014 0.60381225391 0.69302191562 0.79216440667 0.90072551443 1.0172219679 
1.139116835 1.2630228569 1.3852070904 0.71487100155 0.80816628637 0.80816628637 0.90937090954 0.90937090954 0.90937090954 
1.0172219679 1.0172219679 1.0172219679 1.0172219679 1.1296873865 1.1296873865 1.1296873865 1.1296873865 1.1296873865 
1.24411054 1.24411054 1.24411054 1.24411054 1.24411054 1.24411054 1.3575464161 1.3575464161 1.3575464161 
1.3575464161 1.3575464161 1.3575464161 1.3575464161 1.4671972081 1.4671972081 1.4671972081 1.4671972081 1.4671972081 
1.4671972081 1.4671972081 1.4671972081 1.6743954455 1.6743954455 1.7840462375 1.6743954455 1.7840462375 1.8974821136 
1.6743954455 1.7840462375 1.8974821136 2.0119052671 1.6743954455 1.7840462375 1.8974821136 2.0119052671 2.1243706857 
1.6743954455 1.7840462375 1.8974821136 2.0119052671 2.1243706857 2.232221744 1.6743954455 1.7840462375 1.8974821136 
2.0119052671 2.1243706857 2.232221744 2.3334263672 1.6743954455 1.7840462375 1.8974821136 2.0119052671 2.1243706857 
2.232221744 2.3334263672 2.426721652 1.7563855631 1.8785697967 1.8563003522 2.0024758186 1.9913306621 1.9779583789 
2.1243706857 2.1243706857 2.1243706857 2.1243706857 2.2408671392 2.2510113037 2.2630782103 2.2776669786 2.295651703 
2.3494282469 2.3680303173 2.3899057108 2.4159740166 2.4475202889 2.486385773 2.448570738 2.4736848652 2.5028148801 
2.5369440334 2.5773755784 2.6258554882 2.6847397011 2.5377803997 2.5675431237 2.6015718084 2.6407557529 2.6862098746 
2.7393287203 2.8018393335 2.8758309421 2.718901062 2.8307207459 2.7598010554 2.95115522 2.8800620952 2.8058000847 
3.0774230472 3.00855263 2.9351694502 2.8576792927 3.0774230472 3.1415926536 3.0719036933 2.9967168029 2.91630358 
2.95115522 3.00855263 3.0719036933 3.1415926536 3.0653475414 2.9825888767 2.8307207459 2.8800620952 2.9351694502 
2.9967168029 3.0653475414 3.1415926536 3.0574329311 2.718901062 2.7598010554 2.8058000847 2.8576792927 2.91630358 
2.9825888767 3.0574329311 3.1415926536 2.718901062 2.7598010554 2.8307207459 2.8058000847 2.8800620952 2.95115522 
2.8576792927 2.9351694502 3.00855263 3.0774230472 2.91630358 2.9967168029 3.0719036933 3.1415926536 3.0774230472 
2.9825888767 3.0653475414 3.1415926536 3.0719036933 3.00855263 2.95115522 3.0574329311 3.1415926536 3.0653475414 