# vtk DataFile Version 5.1
vtk output
ASCII
DATASET POLYDATA
POINTS 1002 float
-9.98272 -0.0628685 -3.20836 10.2735 -0.903393 -2.60995 -9.77005 1.16661 3.62318 
9.67891 -0.872494 2.0631 -2.97231 2.53042 -2.37532 -2.12343 1.55995 1.09654 
-1.03646 -6.22194 -1.90299 -0.582238 -6.96905 1.8841 18.6404 8.21241 1.25477 
-14.5749 7.58261 0.765821 16.7912 -1.12163 0.134158 -14.8042 -3.88809 -0.106056 
-8.87257 -0.430836 -3.36521 -7.52438 -0.826679 -3.40561 -5.94923 -1.21577 -3.27472 
-4.08718 -1.67965 -3.08157 -1.78364 -2.22053 -3.01055 0.90717 -2.56176 -3.05904 
3.64233 -2.48107 -3.0692 6.14779 -2.07159 -2.97257 8.35843 -1.51343 -2.802 
-9.78185 0.479871 -3.28012 -9.45127 1.06078 -3.33227 -8.93491 1.64679 -3.34388 
-8.28659 2.17754 -3.33745 -7.51245 2.63166 -3.37278 -6.54763 3.00935 -3.37615 
-5.56856 3.23581 -3.20075 -4.76481 3.22622 -2.89161 -3.96762 2.97205 -2.60077 
-9.49001 -0.796676 -3.21725 -8.89065 -1.5496 -3.141 -8.1398 -2.33873 -2.98003 
-7.23921 -3.12424 -2.8042 -6.25177 -3.83669 -2.6474 -5.22591 -4.4782 -2.47001 
-4.15708 -5.04329 -2.26539 -3.0582 -5.50099 -2.09451 -1.99733 -5.88283 -1.98605 
-10.8996 0.638194 -3.06935 -11.856 1.41438 -2.95244 -12.8056 2.27287 -2.79699 
-13.624 3.25439 -2.46854 -14.2295 4.29416 -2.02363 -14.6501 5.21453 -1.58359 
-14.8983 5.96011 -1.06248 -14.9555 6.61478 -0.414385 -14.8381 7.18442 0.225095 
-10.7169 -0.228112 -3.0331 -11.5084 -0.482634 -2.85559 -12.3295 -0.78536 -2.70691 
-13.0467 -1.13574 -2.50564 -13.6219 -1.56136 -2.15044 -14.1278 -2.01783 -1.74724 
-14.5132 -2.48784 -1.41789 -14.7156 -3.0087 -1.07128 -14.7977 -3.51453 -0.618695 
9.83758 -0.648863 -2.68066 9.18274 -0.430122 -2.73168 8.21636 -0.279929 -2.71693 
6.90668 -0.160285 -2.69993 5.33829 -0.0599897 -2.71166 3.56015 -0.0439786 -2.62524 
1.58852 0.0605658 -2.4439 -0.346461 0.583335 -2.35065 -1.90661 1.50864 -2.37331 
9.43895 -1.56747 -2.67372 8.45408 -2.27561 -2.7479 7.34242 -3.00678 -2.80692 
6.08171 -3.68877 -2.79568 4.72758 -4.28199 -2.69284 3.39963 -4.82597 -2.56153 
2.1405 -5.3104 -2.44201 0.962638 -5.68832 -2.29681 -0.0994295 -5.97929 -2.10799 
11.838 -0.0395114 -2.45827 13.3779 0.987537 -2.32299 14.854 2.20102 -2.13466 
16.2473 3.67182 -1.72333 17.4762 5.28927 -1.15466 18.446 6.65955 -0.707389 
19.0833 7.56419 -0.309085 19.2979 8.11344 0.270168 19.098 8.34866 0.876776 
11.5902 -0.669218 -2.47583 12.8667 -0.419289 -2.3732 14.0504 -0.188969 -2.23555 
15.1104 -0.00585629 -1.96835 15.9426 0.11861 -1.61441 16.4974 0.107868 -1.31226 
16.8768 -0.101054 -1.04322 17.0988 -0.426497 -0.689611 17.0704 -0.770281 -0.264436 
-8.51678 0.657194 3.58319 -7.10935 0.0132546 3.43774 -5.57074 -0.720659 3.19271 
-3.79076 -1.48478 2.8412 -1.58114 -2.13247 2.49094 0.979588 -2.45073 2.25033 
3.5232 -2.37563 2.04808 5.81494 -2.02603 1.88682 7.85851 -1.50831 1.89559 
-9.25308 1.48561 3.51758 -8.73241 1.80271 3.31722 -8.13413 2.15 3.116 
-7.42076 2.41346 2.89073 -6.63979 2.50745 2.58538 -5.77823 2.4867 2.27368 
-4.82669 2.34365 1.97893 -3.88452 2.06809 1.64741 -2.99823 1.77974 1.33183 
-9.52966 0.460406 3.59131 -9.15777 -0.446618 3.38142 -8.56314 -1.47509 3.08546 
-7.68655 -2.50956 2.88019 -6.5283 -3.53215 2.76613 -5.15965 -4.50965 2.62774 
-3.7579 -5.353 2.49337 -2.51217 -6.04617 2.38497 -1.47251 -6.59492 2.19568 
-10.6039 1.8031 3.52268 -11.4193 2.44151 3.31445 -12.2294 3.17296 3.10507 
-12.9994 4.02865 2.97351 -13.6201 4.86771 2.81578 -14.0867 5.62042 2.52666 
-14.4882 6.37389 2.15783 -14.7622 7.05652 1.74812 -14.7832 7.47175 1.27575 
-10.8712 1.14187 3.55554 -12.0358 0.925932 3.38152 -13.1846 0.512612 3.18913 
-14.2475 -0.0694543 2.94224 -15.0854 -0.793673 2.54774 -15.5853 -1.58434 2.0883 
-15.7633 -2.35806 1.62456 -15.6497 -3.06283 1.06524 -15.2895 -3.59948 0.438577 
9.0123 -0.769025 1.91442 8.16285 -0.699039 1.72777 7.09555 -0.637346 1.58361 
5.8352 -0.571226 1.49539 4.46484 -0.478326 1.43018 3.05051 -0.314972 1.37801 
1.60885 -0.0648938 1.31422 0.194277 0.306316 1.23289 -1.07539 0.858363 1.16288 
9.16904 -1.46617 2.0135 8.53224 -2.15793 1.92759 7.72054 -2.90027 1.87913 
6.73303 -3.62179 1.88353 5.5685 -4.32195 1.88069 4.21888 -4.99939 1.86387 
2.83529 -5.58151 1.87392 1.59794 -6.07904 1.90107 0.484573 -6.55504 1.91004 
11.0713 -0.0309997 2.19932 12.5418 0.986982 2.31805 14.015 2.16796 2.46182 
15.384 3.46197 2.6476 16.5626 4.71933 2.72538 17.5035 5.78774 2.58901 
18.162 6.72312 2.324 18.5479 7.57154 2.00592 18.709 8.12604 1.64314 
11.126 -0.505279 2.24588 12.5729 -0.147552 2.35934 13.9061 0.0691483 2.36877 
15.038 0.096742 2.2967 15.9359 0.0336453 2.14298 16.5512 -0.0762652 1.85832 
16.864 -0.302025 1.45632 16.9732 -0.609536 1.02246 16.9603 -0.885862 0.588753 
-2.78522 2.75302 -2.16826 -2.57648 2.81235 -1.86461 -2.40501 2.82991 -1.5076 
-2.29932 2.91209 -1.10542 -2.282 2.86333 -0.682397 -2.30556 2.5727 -0.291997 
-2.27251 2.2977 0.114093 -2.19833 2.1269 0.5454 -2.15195 1.89011 0.885132 
-0.953226 1.45943 -2.20801 1.7472 0.912008 -2.03256 4.68998 1.28414 -1.76834 
7.57795 2.18215 -1.4106 10.2982 3.07631 -1.05469 12.5715 4.05295 -0.66168 
14.4013 5.22544 -0.140612 16.0879 6.41687 0.403813 17.5763 7.46726 0.857719 
-4.28158 3.85319 -2.41122 -5.32602 5.00582 -2.29354 -6.4632 5.87608 -2.00936 
-7.77513 6.57167 -1.64116 -9.06181 7.07389 -1.22682 -10.2912 7.36129 -0.783761 
-11.5141 7.57769 -0.371044 -12.6652 7.7507 0.013485 -13.6954 7.76809 0.403794 
-0.453521 0.99218 0.947622 1.63196 0.749746 0.763917 3.96922 0.991422 0.534615 
6.36713 1.58185 0.459231 8.86099 2.34744 0.717032 11.4867 3.40948 1.02709 
13.9549 4.79283 1.07533 15.9505 6.20229 1.058 17.4644 7.37839 1.17163 
-3.55577 2.55783 1.16426 -4.89453 3.75863 1.31619 -6.2009 5.04203 1.58424 
-7.52279 6.24501 1.8646 -8.82086 7.15591 1.99302 -10.0608 7.70674 1.91942 
-11.2873 8.00071 1.68749 -12.5131 8.0931 1.37242 -13.6446 7.95252 1.05817 
-1.02772 -6.56826 -1.70494 -1.01914 -6.89711 -1.45724 -1.02335 -7.18799 -1.14361 
-1.07403 -7.50608 -0.725411 -1.13613 -7.78 -0.16933 -1.13201 -7.81626 0.425171 
-1.04731 -7.67658 0.906752 -0.904347 -7.52363 1.27836 -0.733504 -7.31074 1.60546 
0.495792 -6.359 -1.92063 2.20405 -6.37555 -1.87538 4.09757 -6.25609 -1.80855 
6.11437 -6.04415 -1.79164 8.13567 -5.74385 -1.80491 10.1871 -5.19363 -1.71754 
12.3231 -4.22989 -1.39224 14.2991 -3.03267 -0.860207 15.7955 -1.95765 -0.310612 
-2.53594 -6.22608 -1.74242 -4.13731 -6.21715 -1.59856 -5.75187 -6.21329 -1.47158 
-7.2922 -6.12094 -1.28694 -8.7886 -5.8756 -1.05261 -10.2786 -5.55588 -0.84653 
-11.6628 -5.20791 -0.663855 -12.8547 -4.81945 -0.489188 -13.8891 -4.39279 -0.318386 
1.00192 -6.94652 1.51625 2.83648 -6.76867 1.17581 4.86572 -6.5416 0.982758 
6.89602 -6.35118 0.855698 8.84916 -6.05532 0.695603 10.8114 -5.39518 0.568946 
12.7413 -4.3353 0.493275 14.4399 -3.12225 0.3914 15.7823 -2.02366 0.260017 
-2.23854 -7.08201 2.00554 -4.04666 -7.08391 1.98899 -5.8931 -7.04711 1.87166 
-7.73919 -6.92848 1.74098 -9.53135 -6.63016 1.58928 -11.0537 -6.20714 1.35215 
-12.2565 -5.71104 1.02548 -13.2842 -5.13139 0.6526 -14.1485 -4.51448 0.268699 
19.7455 8.73462 1.45877 20.7271 8.57859 1.57331 21.4919 7.59099 1.57134 
21.7788 6.23839 1.43307 21.4568 5.0562 1.20436 20.758 3.90022 0.976133 
19.8856 2.51258 0.755756 18.8734 1.09899 0.523258 17.8207 -0.10364 0.311505 
-15.5289 6.99706 0.749435 -16.3206 6.16887 0.642765 -16.8573 5.09146 0.46339 
-17.2103 3.7892 0.262273 -17.4746 2.45991 0.0705014 -17.5153 1.16965 -0.0859514 
-17.1668 -0.273423 -0.174464 -16.4985 -1.77575 -0.195758 -15.6747 -3.00818 -0.168112 
-8.53646 0.0531952 -3.44146 -8.06502 0.605625 -3.46826 -7.04922 -0.39195 -3.48543 
-7.45717 1.16419 -3.42497 -6.45664 0.115772 -3.46707 -5.33793 -0.858782 -3.33102 
-6.73122 1.60799 -3.40798 -5.72612 0.567913 -3.34372 -4.57832 -0.476203 -3.2432 
-3.2478 -1.44648 -3.10809 -5.83805 1.92576 -3.44653 -4.83192 0.812076 -3.29402 
-3.60911 -0.222113 -3.08983 -2.18084 -1.18961 -3.00642 -0.588188 -2.01203 -3.04046 
-4.86706 2.11986 -3.31015 -3.80586 0.893407 -3.2521 -2.44558 -0.177358 -3.06773 
-0.877144 -1.00738 -2.92703 0.834652 -1.68569 -2.97664 2.41994 -2.18686 -3.08711 
-3.99064 2.0893 -2.93644 -2.76465 0.861249 -2.96088 -1.17313 -0.174557 -2.98808 
0.571038 -0.858703 -2.94846 2.36801 -1.29882 -2.92417 4.02664 -1.63136 -3.0081 
5.28411 -1.88226 -3.0538 -3.07144 1.83718 -2.58077 -1.65752 0.716472 -2.57283 
0.166419 -0.0972587 -2.70401 2.07425 -0.537069 -2.85315 3.88763 -0.780089 -2.86994 
5.54138 -0.958012 -2.87143 6.85645 -1.12216 -2.91685 7.75326 -1.30725 -2.89443 
-10.7335 1.30265 -3.15225 -11.6717 2.16877 -3.04124 -10.3656 1.9647 -3.21958 
-12.5201 3.10053 -2.80067 -11.1922 2.89279 -3.07287 -9.74208 2.59051 -3.21945 
-13.1871 4.14487 -2.34477 -11.8893 3.88969 -2.71414 -10.4274 3.58653 -2.97213 
-8.98702 3.16713 -3.16536 -13.6477 5.18218 -1.84831 -12.4304 4.94089 -2.19836 
-11.0129 4.63061 -2.53278 -9.57211 4.22539 -2.80491 -8.08372 3.66447 -3.1251 
-13.9178 6.04902 -1.35945 -12.7722 5.8952 -1.69407 -11.4487 5.61467 -2.05277 
-10.0571 5.26031 -2.35997 -8.54901 4.69685 -2.69753 -6.97056 4.0198 -3.06621 
-13.9983 6.75104 -0.770675 -12.8938 6.6707 -1.13649 -11.6391 6.43627 -1.53556 
-10.3283 6.15689 -1.91429 -8.90242 5.66214 -2.25413 -7.32124 4.96016 -2.62939 
-5.92105 4.20348 -2.9087 -13.9106 7.33603 -0.14927 -12.8374 7.28765 -0.529842 
-11.626 7.08446 -0.930151 -10.3586 6.85421 -1.36643 -9.05484 6.48222 -1.77839 
-7.60538 5.84117 -2.15714 -6.20865 5.08596 -2.50091 -5.09506 4.17775 -2.66907 
-12.6492 8.0609 0.649899 -11.4407 8.1593 0.926168 -11.5185 7.97336 0.21363 
-10.189 8.10037 1.25183 -10.2686 8.09043 0.448942 -10.2999 7.78116 -0.210792 
-8.94669 7.77553 1.53748 -9.00264 8.03065 0.776626 -9.03152 7.86303 -0.0134796 
-9.04479 7.50364 -0.651693 -7.66789 6.96417 1.59396 -7.7176 7.50562 1.056 
-7.72735 7.64163 0.279661 -7.74788 7.43093 -0.474977 -7.77103 7.06689 -1.09878 
-6.34794 5.70937 1.35787 -6.41813 6.36519 1.01871 -6.41537 6.85852 0.465949 
-6.42147 7.00398 -0.249105 -6.46065 6.81824 -0.929331 -6.483 6.42248 -1.50682 
-5.0236 4.31601 1.05388 -5.12763 4.86938 0.732985 -5.16088 5.46022 0.349353 
[...]
POINT_DATA 1002
FIELD FieldData 4
_paraPhi 1 1002 double
6.2831853072 3.1415926536 6.2831853072 3.1415926536 4.7123889804 4.7123889804 1.5707963268 1.5707963268 3.6951670125 
5.7296109483 2.5880182947 0.5535743589 6.2831853072 6.2831853072 6.2831853072 6.2831853072 3.1415926536 3.1415926536 
3.1415926536 3.1415926536 3.1415926536 6.1053039672 5.898798347 5.6768734901 5.4599499503 5.2659633393 5.1032165617 
4.9713148346 4.8656852733 4.7809517865 0.17788134 0.38438696014 0.60631181711 0.82323535693 1.0172219679 1.1799687454 
1.3118704726 1.4175000338 1.5022335207 6.1892828907 6.1070320098 6.035312792 5.9728339911 5.9183214791 5.8706119594 
5.8286879411 5.7916808611 5.7588591896 0.093902416448 0.17615329733 0.2478725152 0.31035131605 0.36486382811 0.41257334776 
0.45449736604 0.4915044461 0.52432611754 3.3194739936 3.5259796137 3.7479044707 3.9648280105 4.1588146215 4.321561399 
4.4534631262 4.5590926874 4.6438261743 2.9637113136 2.7572056934 2.5352808365 2.3183572967 2.1243706857 1.9616239082 
1.829722181 1.7240926197 1.6393591329 3.23549507 3.3177459509 3.3894651688 3.4519439696 3.5064564817 3.5541660013 
3.5960900196 3.6330970997 3.6659187711 3.0476902371 2.9654393563 2.8937201384 2.8312413375 2.7767288255 2.7290193058 
2.6870952876 2.6500882075 2.617266536 6.2831853072 6.2831853072 6.2831853072 6.2831853072 3.1415926536 3.1415926536 
3.1415926536 3.1415926536 3.1415926536 6.1053039672 5.898798347 5.6768734901 5.4599499503 5.2659633393 5.1032165617 
4.9713148346 4.8656852733 4.7809517865 0.17788134 0.38438696014 0.60631181711 0.82323535693 1.0172219679 1.1799687454 
1.3118704726 1.4175000338 1.5022335207 6.1892828907 6.1070320098 6.035312792 5.9728339911 5.9183214791 5.8706119594 
5.8286879411 5.7916808611 5.7588591896 0.093902416448 0.17615329733 0.2478725152 0.31035131605 0.36486382811 0.41257334776 
0.45449736604 0.4915044461 0.52432611754 3.3194739936 3.5259796137 3.7479044707 3.9648280105 4.1588146215 4.321561399 
4.4534631262 4.5590926874 4.6438261743 2.9637113136 2.7572056934 2.5352808365 2.3183572967 2.1243706857 1.9616239082 
1.829722181 1.7240926197 1.6393591329 3.23549507 3.3177459509 3.3894651688 3.4519439696 3.5064564817 3.5541660013 
3.5960900196 3.6330970997 3.6659187711 3.0476902371 2.9654393563 2.8937201384 2.8312413375 2.7767288255 2.7290193058 
2.6870952876 2.6500882075 2.617266536 4.7123889804 4.7123889804 4.7123889804 4.7123889804 4.7123889804 4.7123889804 
4.7123889804 4.7123889804 4.7123889804 4.6087898617 4.4991390697 4.3857031936 4.2712800401 4.1588146215 4.0509635631 
3.94975894 3.8564636551 3.7716124825 4.8159880991 4.9256388911 5.0390747672 5.1534979207 5.2659633393 5.3738143976 
5.4750190208 5.5683143056 5.6531654782 4.6087898617 4.4991390697 4.3857031936 4.2712800401 4.1588146215 4.0509635631 
3.94975894 3.8564636551 3.7716124825 4.8159880991 4.9256388911 5.0390747672 5.1534979207 5.2659633393 5.3738143976 
5.4750190208 5.5683143056 5.6531654782 1.5707963268 1.5707963268 1.5707963268 1.5707963268 1.5707963268 1.5707963268 
1.5707963268 1.5707963268 1.5707963268 1.6743954455 1.7840462375 1.8974821136 2.0119052671 2.1243706857 2.232221744 
2.3334263672 2.426721652 2.5115728246 1.4671972081 1.3575464161 1.24411054 1.1296873865 1.0172219679 0.90937090954 
0.80816628637 0.71487100155 0.63001982895 1.6743954455 1.7840462375 1.8974821136 2.0119052671 2.1243706857 2.232221744 
2.3334263672 2.426721652 2.5115728246 1.4671972081 1.3575464161 1.24411054 1.1296873865 1.0172219679 0.90937090954 
0.80816628637 0.71487100155 0.63001982895 3.6007720849 3.4966939854 3.3839471039 3.2645756454 3.1415926536 3.0186096618 
2.8992382033 2.7864913217 2.6824132222 5.8240058758 5.9280839753 6.0408308569 6.1602023154 6.2831853072 0.12298299178 
0.2423544503 0.35510133185 0.45917943135 6.0560271438 5.7885595667 5.9702140275 5.5125918794 5.6029703303 5.7885595667 
5.2659633393 5.2659633393 5.2659633393 5.2659633393 5.0674903122 5.0120975802 4.9155579264 4.7123889804 4.1588146215 
4.9155579264 4.8353719722 4.7123889804 4.5092200343 4.1588146215 3.6362183941 4.8004512023 4.7123889804 4.5894059886 
4.4126803806 4.1588146215 3.8218076305 3.4545639333 4.7123889804 4.6243267584 4.5092200343 4.3572876485 4.1588146215 
3.9121860814 3.6362183941 3.368750817 6.0174235957 5.9434319871 5.8263323547 5.8809213739 5.7674481418 5.6279784266 
5.8278025282 5.718968232 5.5891129425 5.4372443565 5.7823484065 5.678536687 5.5575666702 5.4192596322 5.2659633393 
5.743164462 5.6444075337 5.5314983644 5.4046708639 5.2659633393 5.1195510325 5.7091357773 5.6152775188 5.5096229709 
5.3926039573 5.2659633393 5.1329233157 4.9978930058 5.6793730533 5.5901633916 5.4910209005 5.3824597928 5.2659633393 
5.1440684722 5.0201624502 4.8979782167 5.5683143056 5.4750190208 5.4750190208 5.3738143976 5.3738143976 5.3738143976 
5.2659633393 5.2659633393 5.2659633393 5.2659633393 5.1534979207 5.1534979207 5.1534979207 5.1534979207 5.1534979207 
5.0390747672 5.0390747672 5.0390747672 5.0390747672 5.0390747672 5.0390747672 4.9256388911 4.9256388911 4.9256388911 
4.9256388911 4.9256388911 4.9256388911 4.9256388911 4.8159880991 4.8159880991 4.8159880991 4.8159880991 4.8159880991 
4.8159880991 4.8159880991 4.8159880991 4.6087898617 4.6087898617 4.4991390697 4.6087898617 4.4991390697 4.3857031936 
4.6087898617 4.4991390697 4.3857031936 4.2712800401 4.6087898617 4.4991390697 4.3857031936 4.2712800401 4.1588146215 
4.6087898617 4.4991390697 4.3857031936 4.2712800401 4.1588146215 4.0509635631 4.6087898617 4.4991390697 4.3857031936 
4.2712800401 4.1588146215 4.0509635631 3.94975894 4.6087898617 4.4991390697 4.3857031936 4.2712800401 4.1588146215 
4.0509635631 3.94975894 3.8564636551 4.526799744 4.4046155105 4.426884955 4.2807094886 4.2918546451 4.3052269283 
4.1588146215 4.1588146215 4.1588146215 4.1588146215 4.042318168 4.0321740035 4.0201070968 4.0055183285 3.9875336042 
3.9337570603 3.9151549899 3.8932795963 3.8672112905 3.8356650183 3.7967995342 3.8346145692 3.809500442 3.7803704271 
3.7462412737 3.7058097288 3.657329819 3.5984456061 3.7454049075 3.7156421835 3.6816134988 3.6424295543 3.5969754326 
3.5438565869 3.4813459737 3.4073543651 3.5642842451 3.4524645613 3.5233842518 3.3320300872 3.403123212 3.4773852225 
3.20576226 3.2746326772 3.348015857 3.4255060145 3.0774230472 3.1415926536 3.2112816139 3.2864685043 3.3668817272 
2.95115522 3.00855263 3.0719036933 3.1415926536 3.2178377658 3.3005964304 2.8307207459 2.8800620952 2.9351694502 
2.9967168029 3.0653475414 3.1415926536 3.225752376 2.718901062 2.7598010554 2.8058000847 2.8576792927 2.91630358 
2.9825888767 3.0574329311 3.1415926536 3.5642842451 3.5233842518 3.4524645613 3.4773852225 3.403123212 3.3320300872 
3.4255060145 3.348015857 3.2746326772 3.20576226 3.3668817272 3.2864685043 3.2112816139 3.1415926536 3.0774230472 
3.3005964304 3.2178377658 3.1415926536 3.0719036933 3.00855263 2.95115522 3.225752376 3.1415926536 3.0653475414 
2.9967168029 2.9351694502 2.8800620952 2.8307207459 3.1415926536 3.0574329311 2.9825888767 2.91630358 2.8576792927 
2.8058000847 2.7598010554 2.718901062 4.526799744 4.426884955 4.4046155105 4.3052269283 4.2918546451 4.2807094886 
4.1588146215 4.1588146215 4.1588146215 4.1588146215 3.9875336042 4.0055183285 4.0201070968 4.0321740035 4.042318168 
3.7967995342 3.8356650183 3.8672112905 3.8932795963 3.9151549899 3.9337570603 3.5984456061 3.657329819 3.7058097288 
3.7462412737 3.7803704271 3.809500442 3.8346145692 3.4073543651 3.4813459737 3.5438565869 3.5969754326 3.6424295543 
3.6816134988 3.7156421835 3.7454049075 4.7123889804 4.8004512023 4.6243267584 4.9155579264 4.7123889804 4.5092200343 
5.0674903122 4.8353719722 4.5894059886 4.3572876485 5.2659633393 5.0120975802 4.7123889804 4.4126803806 4.1588146215 
5.5125918794 5.2659633393 4.9155579264 4.5092200343 4.1588146215 3.9121860814 5.7885595667 5.6029703303 5.2659633393 
4.7123889804 4.1588146215 3.8218076305 3.6362183941 6.0560271438 5.9702140275 5.7885595667 5.2659633393 4.1588146215 
3.6362183941 3.4545639333 3.368750817 0.22715816343 0.49462574053 0.3129712797 0.77059342779 0.68021497688 0.49462574053 
1.0172219679 1.0172219679 1.0172219679 1.0172219679 1.2156949949 1.271087727 1.3676273807 1.5707963268 2.1243706857 
1.3676273807 1.447813335 1.5707963268 1.7739652728 2.1243706857 2.6469669131 1.4827341049 1.5707963268 1.6937793186 
1.8705049266 2.1243706857 2.4613776767 2.8286213739 1.5707963268 1.6588585487 1.7739652728 1.9258976586 2.1243706857 
2.3709992258 2.6469669131 2.9144344902 1.7563855631 1.8785697967 1.8563003522 2.0024758186 1.9913306621 1.9779583789 
2.1243706857 2.1243706857 2.1243706857 2.1243706857 2.2408671392 2.2510113037 2.2630782103 2.2776669786 2.295651703 
2.3494282469 2.3680303173 2.3899057108 2.4159740166 2.4475202889 2.486385773 2.448570738 2.4736848652 2.5028148801 
2.5369440334 2.5773755784 2.6258554882 2.6847397011 2.5377803997 2.5675431237 2.6015718084 2.6407557529 2.6862098746 
2.7393287203 2.8018393335 2.8758309421 1.6743954455 1.6743954455 1.7840462375 1.6743954455 1.7840462375 1.8974821136 
1.6743954455 1.7840462375 1.8974821136 2.0119052671 1.6743954455 1.7840462375 1.8974821136 2.0119052671 2.1243706857 
1.6743954455 1.7840462375 1.8974821136 2.0119052671 2.1243706857 2.232221744 1.6743954455 1.7840462375 1.8974821136 
2.0119052671 2.1243706857 2.232221744 2.3334263672 1.6743954455 1.7840462375 1.8974821136 2.0119052671 2.1243706857 
2.232221744 2.3334263672 2.426721652 1.4671972081 1.3575464161 1.4671972081 1.24411054 1.3575464161 1.4671972081 
1.1296873865 1.24411054 1.3575464161 1.4671972081 1.0172219679 1.1296873865 1.24411054 1.3575464161 1.4671972081 
0.90937090954 1.0172219679 1.1296873865 1.24411054 1.3575464161 1.4671972081 0.80816628637 0.90937090954 1.0172219679 
1.1296873865 1.24411054 1.3575464161 1.4671972081 0.71487100155 0.80816628637 0.90937090954 1.0172219679 1.1296873865 
1.24411054 1.3575464161 1.4671972081 0.60381225391 0.57404952988 0.69302191562 0.54002084522 0.66790778838 0.79216440667 
0.50083690068 0.63877777351 0.77356233629 0.90072551443 0.45538277901 0.60464862014 0.75168694275 0.89058134991 1.0172219679 
0.40226393329 0.56421707518 0.72561863695 0.87851444325 1.0172219679 1.139116835 0.33975332011 0.51573716537 0.69407236469 
0.86392567495 1.0172219679 1.1502619915 1.2630228569 0.26576171152 0.45685295248 0.6552068806 0.84594095064 1.0172219679 
1.1636342747 1.2852923014 1.3852070904 0.22715816343 0.3129712797 0.49462574053 0.49462574053 0.68021497688 0.77059342779 
1.0172219679 1.0172219679 1.0172219679 1.0172219679 2.1243706857 1.5707963268 1.3676273807 1.271087727 1.2156949949 
2.6469669131 2.1243706857 1.7739652728 1.5707963268 1.447813335 1.3676273807 2.8286213739 2.4613776767 2.1243706857 
1.8705049266 1.6937793186 1.5707963268 1.4827341049 2.9144344902 2.6469669131 2.3709992258 2.1243706857 1.9258976586 
1.7739652728 1.6588585487 1.5707963268 1.7563855631 1.8563003522 1.8785697967 1.9779583789 1.9913306621 2.0024758186 
2.1243706857 2.1243706857 2.1243706857 2.1243706857 2.295651703 2.2776669786 2.2630782103 2.2510113037 2.2408671392 
2.486385773 2.4475202889 2.4159740166 2.3899057108 2.3680303173 2.3494282469 2.6847397011 2.6258554882 2.5773755784 
2.5369440334 2.5028148801 2.4736848652 2.448570738 2.8758309421 2.8018393335 2.7393287203 2.6862098746 2.6407557529 
2.6015718084 2.5675431237 2.5377803997 5.8604937156 5.901393709 5.9723133995 5.9473927383 6.0216547488 6.0927478736 
5.9992719463 6.0767621038 6.1501452836 6.2190157008 6.0578962336 6.1383094565 6.2134963469 0 0.064169606361 
6.1241815303 6.206940195 6.2831853072 0.069688960264 0.13304002361 0.19043743361 6.1990255847 0 0.07624511221 
0.14487585072 0.20642320337 0.26153055843 0.3108719077 0 0.084159722458 0.15900377685 0.22528907359 0.28391336087 
0.3357925689 0.38179159818 0.42269159155 5.8604937156 5.9723133995 5.901393709 6.0927478736 6.0216547488 5.9473927383 
6.2190157008 6.1501452836 6.0767621038 5.9992719463 0.064169606361 0 6.2134963469 6.1383094565 6.0578962336 
0.19043743361 0.13304002361 0.069688960264 6.2831853072 6.206940195 6.1241815303 0.3108719077 0.26153055843 0.20642320337 
0.14487585072 0.07624511221 6.2831853072 6.1990255847 0.42269159155 0.38179159818 0.3357925689 0.28391336087 0.22528907359 
0.15900377685 0.084159722458 0 5.6793730533 5.7091357773 5.5901633916 5.743164462 5.6152775188 5.4910209005 
5.7823484065 5.6444075337 5.5096229709 5.3824597928 5.8278025282 5.678536687 5.5314983644 5.3926039573 5.2659633393 
5.8809213739 5.718968232 5.5575666702 5.4046708639 5.2659633393 5.1440684722 5.9434319871 5.7674481418 5.5891129425 
5.4192596322 5.2659633393 5.1329233157 5.0201624502 6.0174235957 5.8263323547 5.6279784266 5.4372443565 5.2659633393 
5.1195510325 4.9978930058 4.8979782167 1.3852070904 1.2852923014 1.2630228569 1.1636342747 1.1502619915 1.139116835 
1.0172219679 1.0172219679 1.0172219679 1.0172219679 0.84594095064 0.86392567495 0.87851444325 0.89058134991 0.90072551443 
0.6552068806 0.69407236469 0.72561863695 0.75168694275 0.77356233629 0.79216440667 0.45685295248 0.51573716537 0.56421707518 
0.60464862014 0.63877777351 0.66790778838 0.69302191562 0.26576171152 0.33975332011 0.40226393329 0.45538277901 0.50083690068 
0.54002084522 0.57404952988 0.60381225391 
_paraPhiHalf 1 1002 double
0 3.1415926536 0 3.1415926536 1.5707963268 1.5707963268 1.5707963268 1.5707963268 2.5880182947 
0.5535743589 2.5880182947 0.5535743589 0 0 0 0 3.1415926536 3.1415926536 
3.1415926536 3.1415926536 3.1415926536 0.17788134 0.38438696014 0.60631181711 0.82323535693 1.0172219679 1.1799687454 
1.3118704726 1.4175000338 1.5022335207 0.17788134 0.38438696014 0.60631181711 0.82323535693 1.0172219679 1.1799687454 
1.3118704726 1.4175000338 1.5022335207 0.093902416448 0.17615329733 0.2478725152 0.31035131605 0.36486382811 0.41257334776 
0.45449736604 0.4915044461 0.52432611754 0.093902416448 0.17615329733 0.2478725152 0.31035131605 0.36486382811 0.41257334776 
0.45449736604 0.4915044461 0.52432611754 2.9637113136 2.7572056934 2.5352808365 2.3183572967 2.1243706857 1.9616239082 
1.829722181 1.7240926197 1.6393591329 2.9637113136 2.7572056934 2.5352808365 2.3183572967 2.1243706857 1.9616239082 
1.829722181 1.7240926197 1.6393591329 3.0476902371 2.9654393563 2.8937201384 2.8312413375 2.7767288255 2.7290193058 
2.6870952876 2.6500882075 2.617266536 3.0476902371 2.9654393563 2.8937201384 2.8312413375 2.7767288255 2.7290193058 
2.6870952876 2.6500882075 2.617266536 0 0 0 0 3.1415926536 3.1415926536 
3.1415926536 3.1415926536 3.1415926536 0.17788134 0.38438696014 0.60631181711 0.82323535693 1.0172219679 1.1799687454 
1.3118704726 1.4175000338 1.5022335207 0.17788134 0.38438696014 0.60631181711 0.82323535693 1.0172219679 1.1799687454 
1.3118704726 1.4175000338 1.5022335207 0.093902416448 0.17615329733 0.2478725152 0.31035131605 0.36486382811 0.41257334776 
0.45449736604 0.4915044461 0.52432611754 0.093902416448 0.17615329733 0.2478725152 0.31035131605 0.36486382811 0.41257334776 
0.45449736604 0.4915044461 0.52432611754 2.9637113136 2.7572056934 2.5352808365 2.3183572967 2.1243706857 1.9616239082 
1.829722181 1.7240926197 1.6393591329 2.9637113136 2.7572056934 2.5352808365 2.3183572967 2.1243706857 1.9616239082 
1.829722181 1.7240926197 1.6393591329 3.0476902371 2.9654393563 2.8937201384 2.8312413375 2.7767288255 2.7290193058 
2.6870952876 2.6500882075 2.617266536 3.0476902371 2.9654393563 2.8937201384 2.8312413375 2.7767288255 2.7290193058 
2.6870952876 2.6500882075 2.617266536 1.5707963268 1.5707963268 1.5707963268 1.5707963268 1.5707963268 1.5707963268 
1.5707963268 1.5707963268 1.5707963268 1.6743954455 1.7840462375 1.8974821136 2.0119052671 2.1243706857 2.232221744 
2.3334263672 2.426721652 2.5115728246 1.4671972081 1.3575464161 1.24411054 1.1296873865 1.0172219679 0.90937090954 
0.80816628637 0.71487100155 0.63001982895 1.6743954455 1.7840462375 1.8974821136 2.0119052671 2.1243706857 2.232221744 
2.3334263672 2.426721652 2.5115728246 1.4671972081 1.3575464161 1.24411054 1.1296873865 1.0172219679 0.90937090954 
0.80816628637 0.71487100155 0.63001982895 1.5707963268 1.5707963268 1.5707963268 1.5707963268 1.5707963268 1.5707963268 
1.5707963268 1.5707963268 1.5707963268 1.6743954455 1.7840462375 1.8974821136 2.0119052671 2.1243706857 2.232221744 
2.3334263672 2.426721652 2.5115728246 1.4671972081 1.3575464161 1.24411054 1.1296873865 1.0172219679 0.90937090954 
0.80816628637 0.71487100155 0.63001982895 1.6743954455 1.7840462375 1.8974821136 2.0119052671 2.1243706857 2.232221744 
2.3334263672 2.426721652 2.5115728246 1.4671972081 1.3575464161 1.24411054 1.1296873865 1.0172219679 0.90937090954 
0.80816628637 0.71487100155 0.63001982895 2.6824132222 2.7864913217 2.8992382033 3.0186096618 3.1415926536 3.0186096618 
2.8992382033 2.7864913217 2.6824132222 0.45917943135 0.35510133185 0.2423544503 0.12298299178 0 0.12298299178 
0.2423544503 0.35510133185 0.45917943135 0.22715816343 0.49462574053 0.3129712797 0.77059342779 0.68021497688 0.49462574053 
1.0172219679 1.0172219679 1.0172219679 1.0172219679 1.2156949949 1.271087727 1.3676273807 1.5707963268 2.1243706857 
1.3676273807 1.447813335 1.5707963268 1.7739652728 2.1243706857 2.6469669131 1.4827341049 1.5707963268 1.6937793186 
1.8705049266 2.1243706857 2.4613776767 2.8286213739 1.5707963268 1.6588585487 1.7739652728 1.9258976586 2.1243706857 
2.3709992258 2.6469669131 2.9144344902 0.26576171152 0.33975332011 0.45685295248 0.40226393329 0.51573716537 0.6552068806 
0.45538277901 0.56421707518 0.69407236469 0.84594095064 0.50083690068 0.60464862014 0.72561863695 0.86392567495 1.0172219679 
0.54002084522 0.63877777351 0.75168694275 0.87851444325 1.0172219679 1.1636342747 0.57404952988 0.66790778838 0.77356233629 
0.89058134991 1.0172219679 1.1502619915 1.2852923014 0.60381225391 0.69302191562 0.79216440667 0.90072551443 1.0172219679 
1.139116835 1.2630228569 1.3852070904 0.71487100155 0.80816628637 0.80816628637 0.90937090954 0.90937090954 0.90937090954 
1.0172219679 1.0172219679 1.0172219679 1.0172219679 1.1296873865 1.1296873865 1.1296873865 1.1296873865 1.1296873865 
1.24411054 1.24411054 1.24411054 1.24411054 1.24411054 1.24411054 1.3575464161 1.3575464161 1.3575464161 
1.3575464161 1.3575464161 1.3575464161 1.3575464161 1.4671972081 1.4671972081 1.4671972081 1.4671972081 1.4671972081 
1.4671972081 1.4671972081 1.4671972081 1.6743954455 1.6743954455 1.7840462375 1.6743954455 1.7840462375 1.8974821136 
1.6743954455 1.7840462375 1.8974821136 2.0119052671 1.6743954455 1.7840462375 1.8974821136 2.0119052671 2.1243706857 
1.6743954455 1.7840462375 1.8974821136 2.0119052671 2.1243706857 2.232221744 1.6743954455 1.7840462375 1.8974821136 
2.0119052671 2.1243706857 2.232221744 2.3334263672 1.6743954455 1.7840462375 1.8974821136 2.0119052671 2.1243706857 
2.232221744 2.3334263672 2.426721652 1.7563855631 1.8785697967 1.8563003522 2.0024758186 1.9913306621 1.9779583789 
2.1243706857 2.1243706857 2.1243706857 2.1243706857 2.2408671392 2.2510113037 2.2630782103 2.2776669786 2.295651703 
2.3494282469 2.3680303173 2.3899057108 2.4159740166 2.4475202889 2.486385773 2.448570738 2.4736848652 2.5028148801 
2.5369440334 2.5773755784 2.6258554882 2.6847397011 2.5377803997 2.5675431237 2.6015718084 2.6407557529 2.6862098746 
2.7393287203 2.8018393335 2.8758309421 2.718901062 2.8307207459 2.7598010554 2.95115522 2.8800620952 2.8058000847 
3.0774230472 3.00855263 2.9351694502 2.8576792927 3.0774230472 3.1415926536 3.0719036933 2.9967168029 2.91630358 
2.95115522 3.00855263 3.0719036933 3.1415926536 3.0653475414 2.9825888767 2.8307207459 2.8800620952 2.9351694502 
2.9967168029 3.0653475414 3.1415926536 3.0574329311 2.718901062 2.7598010554 2.8058000847 2.8576792927 2.91630358 
2.9825888767 3.0574329311 3.1415926536 2.718901062 2.7598010554 2.8307207459 2.8058000847 2.8800620952 2.95115522 
2.8576792927 2.9351694502 3.00855263 3.0774230472 2.91630358 2.9967168029 3.0719036933 3.1415926536 3.0774230472 
2.9825888767 3.0653475414 3.1415926536 3.0719036933 3.00855263 2.95115522 3.0574329311 3.1415926536 3.0653475414 