# vtk DataFile Version 5.1
vtk output
ASCII
DATASET POLYDATA
POINTS 1002 float
-10.3469 0.0898698 -3.31736 10.5875 -1.08706 -2.62225 -9.86524 0.809054 3.64133 
9.80531 -0.853348 2.17939 -2.85318 2.17247 -2.48356 -2.47065 1.51361 0.952641 
-1.10628 -6.68352 -2.2158 -1.06309 -7.26431 1.67436 18.5392 9.06351 1.02823 
-15.0249 8.06674 0.658493 16.9929 -1.2166 0.237281 -15.1097 -3.78473 0.119691 
-9.17961 -0.297172 -3.40192 -7.8041 -0.746689 -3.43209 -6.21354 -1.25444 -3.40879 
-4.2716 -1.8564 -3.36246 -1.79043 -2.50307 -3.33568 1.10575 -2.91562 -3.3016 
3.98352 -2.84844 -3.19802 6.53576 -2.38521 -3.03015 8.72156 -1.75636 -2.83263 
-10.0455 0.638474 -3.38797 -9.67297 1.16263 -3.48908 -9.25204 1.69127 -3.58548 
-8.69444 2.28182 -3.59115 -7.90129 2.87916 -3.4923 -6.92932 3.31243 -3.35498 
-5.8942 3.45321 -3.19026 -4.8534 3.26768 -2.97285 -3.83704 2.79653 -2.7251 
-9.87679 -0.718691 -3.31666 -9.25331 -1.57191 -3.28841 -8.47474 -2.4085 -3.19182 
-7.55324 -3.20913 -3.01384 -6.48468 -3.99069 -2.82264 -5.33723 -4.72856 -2.67061 
-4.21846 -5.36241 -2.53387 -3.14101 -5.88068 -2.41621 -2.09049 -6.31748 -2.32558 
-11.2759 0.820911 -3.22299 -12.243 1.62158 -3.0878 -13.2021 2.50544 -2.90401 
-14.0781 3.52624 -2.61775 -14.8039 4.64691 -2.22629 -15.296 5.67276 -1.80629 
-15.5108 6.50326 -1.3269 -15.5085 7.19937 -0.704302 -15.3441 7.74772 -0.000923343 
-11.1462 -0.0706085 -3.17948 -11.922 -0.285851 -2.96785 -12.7164 -0.552956 -2.75131 
-13.5055 -0.924515 -2.56395 -14.1495 -1.39232 -2.24669 -14.6027 -1.86281 -1.76601 
-14.941 -2.34993 -1.33025 -15.1635 -2.90581 -0.947888 -15.2153 -3.42714 -0.461231 
10.1058 -0.810229 -2.67174 9.44464 -0.596916 -2.74555 8.58804 -0.391248 -2.76207 
7.47538 -0.206019 -2.70117 6.01013 -0.163964 -2.63328 4.16896 -0.25792 -2.60561 
2.09972 -0.236414 -2.60349 0.0808906 0.171553 -2.59958 -1.61449 1.03051 -2.56625 
9.82612 -1.86916 -2.75223 8.87418 -2.69639 -2.88417 7.73963 -3.47877 -2.95338 
6.43486 -4.19744 -2.94561 5.00859 -4.85108 -2.87998 3.58201 -5.38026 -2.75182 
2.25345 -5.78682 -2.59285 1.02495 -6.13579 -2.46385 -0.106292 -6.43975 -2.3558 
12.0975 -0.124276 -2.40732 13.6595 1.03143 -2.17661 15.1991 2.38251 -1.94965 
16.5747 3.8999 -1.70243 17.672 5.47285 -1.38883 18.4722 6.89826 -1.03162 
18.9509 8.01652 -0.636145 19.0682 8.7732 -0.125975 18.8872 9.12692 0.475981 
11.8904 -0.86298 -2.49173 13.1426 -0.634557 -2.38992 14.3531 -0.390086 -2.25996 
15.5073 -0.119374 -1.99421 16.421 0.122068 -1.59 17.0063 0.172924 -1.18564 
17.366 -0.0551554 -0.844251 17.4939 -0.446362 -0.498699 17.3406 -0.849211 -0.122911 
-8.70677 0.352185 3.5544 -7.3871 -0.232688 3.39202 -5.83837 -0.992338 3.13188 
-3.92802 -1.81838 2.75981 -1.62663 -2.48541 2.35982 0.909432 -2.81478 2.05205 
3.45679 -2.71997 1.88223 5.83292 -2.24877 1.86647 7.94745 -1.57537 1.9907 
-9.47174 1.24603 3.47935 -8.95861 1.74138 3.35715 -8.32386 2.20944 3.26848 
-7.61554 2.54473 3.10378 -6.82408 2.70136 2.81153 -5.93588 2.67163 2.45845 
-5.05043 2.48405 2.08269 -4.21952 2.19298 1.67531 -3.37143 1.84968 1.27841 
-9.47305 0.105784 3.74676 -8.90107 -0.73828 3.78067 -8.14341 -1.76787 3.72373 
-7.2406 -2.89658 3.56795 -6.21895 -3.99921 3.31562 -5.11862 -5.00511 3.01273 
-4.03483 -5.82159 2.68954 -3.00747 -6.41477 2.33804 -2.01178 -6.8773 1.9859 
-10.7165 1.52132 3.55819 -11.5395 2.34304 3.42357 -12.3538 3.24632 3.2787 
-13.1245 4.13391 3.09772 -13.7562 4.96955 2.82446 -14.2657 5.80252 2.52613 
-14.7116 6.60976 2.24753 -15.0207 7.29638 1.85955 -15.1168 7.79505 1.29225 
-10.8048 0.807416 3.72957 -11.8781 0.733333 3.67942 -13.0576 0.465885 3.49316 
-14.1871 -0.0686798 3.22498 -15.056 -0.7822 2.81097 -15.573 -1.52005 2.26453 
-15.7758 -2.23863 1.76252 -15.7225 -2.92487 1.29253 -15.4752 -3.47023 0.726735 
9.1493 -0.74599 2.02713 8.29871 -0.713816 1.78461 7.22771 -0.689697 1.58044 
5.9468 -0.65655 1.43794 4.517 -0.623169 1.32288 2.98859 -0.507678 1.2663 
1.40308 -0.23397 1.22492 -0.116739 0.189611 1.12584 -1.42336 0.771324 1.01585 
9.24107 -1.5046 2.10905 8.54099 -2.25122 2.00806 7.68765 -3.07075 1.94339 
6.69155 -3.90989 1.92968 5.5633 -4.71002 1.90735 4.29148 -5.42589 1.86018 
2.89298 -6.03631 1.81108 1.46621 -6.54555 1.75911 0.128982 -6.9556 1.7113 
11.2775 0.061157 2.35074 12.8976 1.18109 2.55484 14.5139 2.46518 2.76562 
15.8746 3.80215 2.90594 16.9224 5.09073 2.85141 17.7769 6.31674 2.63843 
18.3882 7.49928 2.40291 18.6559 8.50207 2.08816 18.6647 9.05759 1.59878 
11.2624 -0.529986 2.29815 12.739 -0.262339 2.35754 14.1314 -0.0297127 2.44875 
15.305 0.136526 2.49681 16.1892 0.147938 2.31743 16.7669 0.0145822 1.959 
17.0408 -0.20661 1.56739 17.1091 -0.515888 1.14378 17.0922 -0.876002 0.685108 
-2.86172 2.49857 -2.24727 -2.80911 2.76066 -1.96776 -2.69007 2.94526 -1.63754 
-2.57966 3.03698 -1.23149 -2.55165 2.98348 -0.759034 -2.56911 2.79196 -0.270641 
-2.55478 2.52507 0.168986 -2.51076 2.20037 0.506348 -2.48097 1.84367 0.749048 
-0.916487 0.941724 -2.30357 1.76296 0.498734 -2.08092 4.97217 1.06107 -1.76154 
8.20531 2.08261 -1.33068 11.0728 3.22318 -0.872746 13.4376 4.57958 -0.444946 
15.284 5.95757 -0.0446553 16.6865 7.16167 0.310585 17.7479 8.23567 0.646981 
-4.28234 3.88865 -2.48036 -5.46677 5.39554 -2.3441 -6.67448 6.35754 -2.04488 
-7.99805 7.01727 -1.66983 -9.33543 7.50027 -1.28397 -10.6562 7.75402 -0.85808 
-11.975 8.01519 -0.432559 -13.209 8.32278 -0.0701578 -14.2432 8.37412 0.278968 
-0.756829 0.803032 0.721023 1.3919 0.483793 0.547089 3.92237 0.774339 0.474734 
6.80914 1.6039 0.599656 9.82561 2.72842 0.916049 12.4777 4.06862 1.22225 
14.5681 5.58165 1.35247 16.2524 7.04259 1.3315 17.5775 8.23327 1.22145 
-3.89962 2.69118 1.13057 -5.20467 4.12314 1.40481 -6.45816 5.5918 1.7551 
-7.71688 6.85669 2.06666 -8.97382 7.72138 2.16554 -10.2405 8.17845 1.99629 
-11.5553 8.41194 1.68546 -12.8831 8.52064 1.35844 -14.0839 8.42364 1.02336 
-1.10311 -7.01673 -1.98332 -1.11622 -7.32828 -1.65889 -1.16968 -7.62465 -1.27989 
-1.28461 -7.95346 -0.87037 -1.43695 -8.24819 -0.397669 -1.5373 -8.32276 0.151419 
-1.50992 -8.16292 0.696715 -1.37502 -7.91146 1.13605 -1.20859 -7.6161 1.44736 
0.507657 -6.84274 -2.14531 2.34499 -6.90007 -2.01877 4.36983 -6.83575 -1.89101 
6.47077 -6.66494 -1.81468 8.65193 -6.29457 -1.78433 11.0167 -5.52465 -1.64896 
13.3256 -4.38832 -1.24936 15.1023 -3.19154 -0.682837 16.2366 -2.13687 -0.165883 
-2.65528 -6.6678 -2.08189 -4.27567 -6.59614 -1.84596 -5.92535 -6.46258 -1.57733 
-7.56536 -6.25776 -1.36257 -9.16997 -6.00048 -1.17666 -10.6845 -5.71159 -0.958348 
-12.0418 -5.35081 -0.731548 -13.2179 -4.88568 -0.502098 -14.232 -4.35411 -0.218369 
0.660807 -7.37954 1.40915 2.65701 -7.25963 1.14353 4.95535 -6.91964 0.91893 
7.43766 -6.5384 0.816856 9.82793 -6.04943 0.820555 11.9534 -5.25395 0.78885 
13.7511 -4.24076 0.655966 15.1346 -3.18651 0.49058 16.1507 -2.16135 0.352845 
-2.78809 -7.30412 1.82999 -4.57615 -7.37186 1.98899 -6.3324 -7.38692 2.08901 
-7.99811 -7.14746 2.07302 -9.64635 -6.72655 1.94778 -11.2471 -6.31841 1.72819 
-12.5763 -5.81455 1.38537 -13.5736 -5.13666 0.948984 -14.3902 -4.43314 0.511908 
19.4488 9.64301 1.1474 20.4 9.51566 1.26834 21.2867 8.48461 1.29495 
21.6675 7.00783 1.18216 21.3736 5.61787 1.04428 20.8069 4.21843 0.938783 
20.1273 2.68003 0.784509 19.1486 1.21574 0.581488 18.0042 -0.0677423 0.39665 
-15.8675 7.35501 0.65461 -16.5997 6.41225 0.617651 -17.2423 5.30245 0.488355 
-17.7375 4.03818 0.248963 -17.9696 2.68583 -0.000527796 -17.9122 1.23108 -0.131901 
-17.5708 -0.35629 -0.104105 -16.9223 -1.82532 0.00757013 -16.044 -2.94453 0.091203 
-8.76575 0.194689 -3.49826 -8.27715 0.645309 -3.63841 -7.30512 -0.297672 -3.53332 
-7.69267 1.0985 -3.71397 -6.67466 0.103895 -3.6264 -5.60156 -0.857854 -3.44023 
-6.94199 1.60192 -3.64013 -5.84721 0.433429 -3.61487 -4.74988 -0.552088 -3.41542 
-3.38399 -1.58145 -3.30772 -6.04078 2.04736 -3.47746 -4.86609 0.661252 -3.51364 
-3.6299 -0.443606 -3.37581 -2.19488 -1.39489 -3.22156 -0.482273 -2.29221 -3.25122 
-5.04848 2.19758 -3.28401 -3.81152 0.713544 -3.34943 -2.35318 -0.507098 -3.33168 
-0.746934 -1.32041 -3.19762 1.05017 -1.99994 -3.14382 2.73033 -2.53338 -3.2014 
-3.95875 1.95738 -3.05016 -2.62709 0.544171 -3.09798 -0.943311 -0.580402 -3.15161 
0.882783 -1.19077 -3.12686 2.72684 -1.56893 -3.05996 4.39613 -1.92369 -3.06283 
5.65677 -2.18369 -3.07449 -2.78983 1.48991 -2.80022 -1.28743 0.29315 -2.8244 
0.592882 -0.512617 -2.85596 2.59332 -0.828648 -2.8868 4.4503 -0.931716 -2.89454 
6.01189 -1.11424 -2.91517 7.20994 -1.33809 -2.93 8.079 -1.53077 -2.89042 
-11.0128 1.46378 -3.29398 -11.9895 2.3692 -3.15238 -10.6776 2.11617 -3.36214 
-12.8805 3.35155 -2.916 -11.6029 3.154 -3.167 -10.2279 2.80294 -3.39537 
-13.6301 4.44119 -2.50835 -12.3426 4.20213 -2.83585 -10.9807 3.92884 -3.11438 
-9.52086 3.4689 -3.353 -14.1933 5.55028 -2.02176 -12.9154 5.26619 -2.34418 
-11.5186 4.97429 -2.69362 -10.0574 4.5333 -3.00357 -8.53228 3.96703 -3.25217 
-14.504 6.51031 -1.55648 -13.2799 6.26933 -1.82817 -11.9185 5.9895 -2.17889 
-10.4584 5.55289 -2.52314 -8.93581 4.89538 -2.86036 -7.41034 4.28006 -3.12173 
-14.5861 7.30977 -1.01222 -13.4051 7.11266 -1.28948 -12.0901 6.86337 -1.63982 
-10.7197 6.5628 -1.99683 -9.25119 5.91952 -2.33738 -7.72904 5.19085 -2.69733 
-6.28422 4.45926 -2.94343 -14.4977 7.96153 -0.362399 -13.3732 7.80975 -0.671513 
-12.0713 7.51319 -1.03389 -10.7404 7.29995 -1.44387 -9.38196 6.88732 -1.80863 
-7.93929 6.19525 -2.17068 -6.53049 5.4524 -2.52238 -5.23177 4.3732 -2.71807 
-13.1295 8.60166 0.600468 -11.7914 8.58978 0.871817 -11.9662 8.439 0.17938 
-10.4025 8.49203 1.19829 -10.5686 8.47217 0.400763 -10.6577 8.15587 -0.246694 
-9.08054 8.26319 1.57417 -9.15099 8.4754 0.757382 -9.22708 8.29194 -0.0269991 
-9.27347 7.90898 -0.699724 -7.81809 7.57318 1.73038 -7.80472 8.08977 1.12819 
-7.79749 8.22091 0.323362 -7.82657 7.95136 -0.486447 -7.89189 7.53223 -1.156 
-6.57682 6.31652 1.5221 -6.56553 6.98164 1.15957 -6.50084 7.47547 0.568608 
-6.4776 7.5832 -0.222301 -6.49516 7.33777 -1.00065 -6.56877 6.93246 -1.59464 
-5.32323 4.75346 1.171 -5.3689 5.36918 0.884419 -5.33368 5.96929 0.487572 
[...]
POINT_DATA 1002
FIELD FieldData 4
_paraPhi 1 1002 double
6.2831853072 3.1415926536 6.2831853072 3.1415926536 4.7123889804 4.7123889804 1.5707963268 1.5707963268 3.6951670125 
5.7296109483 2.5880182947 0.5535743589 6.2831853072 6.2831853072 6.2831853072 6.2831853072 3.1415926536 3.1415926536 
3.1415926536 3.1415926536 3.1415926536 6.1053039672 5.898798347 5.6768734901 5.4599499503 5.2659633393 5.1032165617 
4.9713148346 4.8656852733 4.7809517865 0.17788134 0.38438696014 0.60631181711 0.82323535693 1.0172219679 1.1799687454 
1.3118704726 1.4175000338 1.5022335207 6.1892828907 6.1070320098 6.035312792 5.9728339911 5.9183214791 5.8706119594 
5.8286879411 5.7916808611 5.7588591896 0.093902416448 0.17615329733 0.2478725152 0.31035131605 0.36486382811 0.41257334776 
0.45449736604 0.4915044461 0.52432611754 3.3194739936 3.5259796137 3.7479044707 3.9648280105 4.1588146215 4.321561399 
4.4534631262 4.5590926874 4.6438261743 2.9637113136 2.7572056934 2.5352808365 2.3183572967 2.1243706857 1.9616239082 
1.829722181 1.7240926197 1.6393591329 3.23549507 3.3177459509 3.3894651688 3.4519439696 3.5064564817 3.5541660013 
3.5960900196 3.6330970997 3.6659187711 3.0476902371 2.9654393563 2.8937201384 2.8312413375 2.7767288255 2.7290193058 
2.6870952876 2.6500882075 2.617266536 6.2831853072 6.2831853072 6.2831853072 6.2831853072 3.1415926536 3.1415926536 
3.1415926536 3.1415926536 3.1415926536 6.1053039672 5.898798347 5.6768734901 5.4599499503 5.2659633393 5.1032165617 
4.9713148346 4.8656852733 4.7809517865 0.17788134 0.38438696014 0.60631181711 0.82323535693 1.0172219679 1.1799687454 
1.3118704726 1.4175000338 1.5022335207 6.1892828907 6.1070320098 6.035312792 5.9728339911 5.9183214791 5.8706119594 
5.8286879411 5.7916808611 5.7588591896 0.093902416448 0.17615329733 0.2478725152 0.31035131605 0.36486382811 0.41257334776 
0.45449736604 0.4915044461 0.52432611754 3.3194739936 3.5259796137 3.7479044707 3.9648280105 4.1588146215 4.321561399 
4.4534631262 4.5590926874 4.6438261743 2.9637113136 2.7572056934 2.5352808365 2.3183572967 2.1243706857 1.9616239082 
1.829722181 1.7240926197 1.6393591329 3.23549507 3.3177459509 3.3894651688 3.4519439696 3.5064564817 3.5541660013 
3.5960900196 3.6330970997 3.6659187711 3.0476902371 2.9654393563 2.8937201384 2.8312413375 2.7767288255 2.7290193058 
2.6870952876 2.6500882075 2.617266536 4.7123889804 4.7123889804 4.7123889804 4.7123889804 4.7123889804 4.7123889804 
4.7123889804 4.7123889804 4.7123889804 4.6087898617 4.4991390697 4.3857031936 4.2712800401 4.1588146215 4.0509635631 
3.94975894 3.8564636551 3.7716124825 4.8159880991 4.9256388911 5.0390747672 5.1534979207 5.2659633393 5.3738143976 
5.4750190208 5.5683143056 5.6531654782 4.6087898617 4.4991390697 4.3857031936 4.2712800401 4.1588146215 4.0509635631 
3.94975894 3.8564636551 3.7716124825 4.8159880991 4.9256388911 5.0390747672 5.1534979207 5.2659633393 5.3738143976 
5.4750190208 5.5683143056 5.6531654782 1.5707963268 1.5707963268 1.5707963268 1.5707963268 1.5707963268 1.5707963268 
1.5707963268 1.5707963268 1.5707963268 1.6743954455 1.7840462375 1.8974821136 2.0119052671 2.1243706857 2.232221744 
2.3334263672 2.426721652 2.5115728246 1.4671972081 1.3575464161 1.24411054 1.1296873865 1.0172219679 0.90937090954 
0.80816628637 0.71487100155 0.63001982895 1.6743954455 1.7840462375 1.8974821136 2.0119052671 2.1243706857 2.232221744 
2.3334263672 2.426721652 2.5115728246 1.4671972081 1.3575464161 1.24411054 1.1296873865 1.0172219679 0.90937090954 
0.80816628637 0.71487100155 0.63001982895 3.6007720849 3.4966939854 3.3839471039 3.2645756454 3.1415926536 3.0186096618 
2.8992382033 2.7864913217 2.6824132222 5.8240058758 5.9280839753 6.0408308569 6.1602023154 6.2831853072 0.12298299178 
0.2423544503 0.35510133185 0.45917943135 6.0560271438 5.7885595667 5.9702140275 5.5125918794 5.6029703303 5.7885595667 
5.2659633393 5.2659633393 5.2659633393 5.2659633393 5.0674903122 5.0120975802 4.9155579264 4.7123889804 4.1588146215 
4.9155579264 4.8353719722 4.7123889804 4.5092200343 4.1588146215 3.6362183941 4.8004512023 4.7123889804 4.5894059886 
4.4126803806 4.1588146215 3.8218076305 3.4545639333 4.7123889804 4.6243267584 4.5092200343 4.3572876485 4.1588146215 
3.9121860814 3.6362183941 3.368750817 6.0174235957 5.9434319871 5.8263323547 5.8809213739 5.7674481418 5.6279784266 
5.8278025282 5.718968232 5.5891129425 5.4372443565 5.7823484065 5.678536687 5.5575666702 5.4192596322 5.2659633393 
5.743164462 5.6444075337 5.5314983644 5.4046708639 5.2659633393 5.1195510325 5.7091357773 5.6152775188 5.5096229709 
5.3926039573 5.2659633393 5.1329233157 4.9978930058 5.6793730533 5.5901633916 5.4910209005 5.3824597928 5.2659633393 
5.1440684722 5.0201624502 4.8979782167 5.5683143056 5.4750190208 5.4750190208 5.3738143976 5.3738143976 5.3738143976 
5.2659633393 5.2659633393 5.2659633393 5.2659633393 5.1534979207 5.1534979207 5.1534979207 5.1534979207 5.1534979207 
5.0390747672 5.0390747672 5.0390747672 5.0390747672 5.0390747672 5.0390747672 4.9256388911 4.9256388911 4.9256388911 
4.9256388911 4.9256388911 4.9256388911 4.9256388911 4.8159880991 4.8159880991 4.8159880991 4.8159880991 4.8159880991 
4.8159880991 4.8159880991 4.8159880991 4.6087898617 4.6087898617 4.4991390697 4.6087898617 4.4991390697 4.3857031936 
4.6087898617 4.4991390697 4.3857031936 4.2712800401 4.6087898617 4.4991390697 4.3857031936 4.2712800401 4.1588146215 
4.6087898617 4.4991390697 4.3857031936 4.2712800401 4.1588146215 4.0509635631 4.6087898617 4.4991390697 4.3857031936 
4.2712800401 4.1588146215 4.0509635631 3.94975894 4.6087898617 4.4991390697 4.3857031936 4.2712800401 4.1588146215 
4.0509635631 3.94975894 3.8564636551 4.526799744 4.4046155105 4.426884955 4.2807094886 4.2918546451 4.3052269283 
4.1588146215 4.1588146215 4.1588146215 4.1588146215 4.042318168 4.0321740035 4.0201070968 4.0055183285 3.9875336042 
3.9337570603 3.9151549899 3.8932795963 3.8672112905 3.8356650183 3.7967995342 3.8346145692 3.809500442 3.7803704271 
3.7462412737 3.7058097288 3.657329819 3.5984456061 3.7454049075 3.7156421835 3.6816134988 3.6424295543 3.5969754326 
3.5438565869 3.4813459737 3.4073543651 3.5642842451 3.4524645613 3.5233842518 3.3320300872 3.403123212 3.4773852225 
3.20576226 3.2746326772 3.348015857 3.4255060145 3.0774230472 3.1415926536 3.2112816139 3.2864685043 3.3668817272 
2.95115522 3.00855263 3.0719036933 3.1415926536 3.2178377658 3.3005964304 2.8307207459 2.8800620952 2.9351694502 
2.9967168029 3.0653475414 3.1415926536 3.225752376 2.718901062 2.7598010554 2.8058000847 2.8576792927 2.91630358 
2.9825888767 3.0574329311 3.1415926536 3.5642842451 3.5233842518 3.4524645613 3.4773852225 3.403123212 3.3320300872 
3.4255060145 3.348015857 3.2746326772 3.20576226 3.3668817272 3.2864685043 3.2112816139 3.1415926536 3.0774230472 
3.3005964304 3.2178377658 3.1415926536 3.0719036933 3.00855263 2.95115522 3.225752376 3.1415926536 3.0653475414 
2.9967168029 2.9351694502 2.8800620952 2.8307207459 3.1415926536 3.0574329311 2.9825888767 2.91630358 2.8576792927 
2.8058000847 2.7598010554 2.718901062 4.526799744 4.426884955 4.4046155105 4.3052269283 4.2918546451 4.2807094886 
4.1588146215 4.1588146215 4.1588146215 4.1588146215 3.9875336042 4.0055183285 4.0201070968 4.0321740035 4.042318168 
3.7967995342 3.8356650183 3.8672112905 3.8932795963 3.9151549899 3.9337570603 3.5984456061 3.657329819 3.7058097288 
3.7462412737 3.7803704271 3.809500442 3.8346145692 3.4073543651 3.4813459737 3.5438565869 3.5969754326 3.6424295543 
3.6816134988 3.7156421835 3.7454049075 4.7123889804 4.8004512023 4.6243267584 4.9155579264 4.7123889804 4.5092200343 
5.0674903122 4.8353719722 4.5894059886 4.3572876485 5.2659633393 5.0120975802 4.7123889804 4.4126803806 4.1588146215 
5.5125918794 5.2659633393 4.9155579264 4.5092200343 4.1588146215 3.9121860814 5.7885595667 5.6029703303 5.2659633393 
4.7123889804 4.1588146215 3.8218076305 3.6362183941 6.0560271438 5.9702140275 5.7885595667 5.2659633393 4.1588146215 
3.6362183941 3.4545639333 3.368750817 0.22715816343 0.49462574053 0.3129712797 0.77059342779 0.68021497688 0.49462574053 
1.0172219679 1.0172219679 1.0172219679 1.0172219679 1.2156949949 1.271087727 1.3676273807 1.5707963268 2.1243706857 
1.3676273807 1.447813335 1.5707963268 1.7739652728 2.1243706857 2.6469669131 1.4827341049 1.5707963268 1.6937793186 
1.8705049266 2.1243706857 2.4613776767 2.8286213739 1.5707963268 1.6588585487 1.7739652728 1.9258976586 2.1243706857 
2.3709992258 2.6469669131 2.9144344902 1.7563855631 1.8785697967 1.8563003522 2.0024758186 1.9913306621 1.9779583789 
2.1243706857 2.1243706857 2.1243706857 2.1243706857 2.2408671392 2.2510113037 2.2630782103 2.2776669786 2.295651703 
2.3494282469 2.3680303173 2.3899057108 2.4159740166 2.4475202889 2.486385773 2.448570738 2.4736848652 2.5028148801 
2.5369440334 2.5773755784 2.6258554882 2.6847397011 2.5377803997 2.5675431237 2.6015718084 2.6407557529 2.6862098746 
2.7393287203 2.8018393335 2.8758309421 1.6743954455 1.6743954455 1.7840462375 1.6743954455 1.7840462375 1.8974821136 
1.6743954455 1.7840462375 1.8974821136 2.0119052671 1.6743954455 1.7840462375 1.8974821136 2.0119052671 2.1243706857 
1.6743954455 1.7840462375 1.8974821136 2.0119052671 2.1243706857 2.232221744 1.6743954455 1.7840462375 1.8974821136 
2.0119052671 2.1243706857 2.232221744 2.3334263672 1.6743954455 1.7840462375 1.8974821136 2.0119052671 2.1243706857 
2.232221744 2.3334263672 2.426721652 1.4671972081 1.3575464161 1.4671972081 1.24411054 1.3575464161 1.4671972081 
1.1296873865 1.24411054 1.3575464161 1.4671972081 1.0172219679 1.1296873865 1.24411054 1.3575464161 1.4671972081 
0.90937090954 1.0172219679 1.1296873865 1.24411054 1.3575464161 1.4671972081 0.80816628637 0.90937090954 1.0172219679 
1.1296873865 1.24411054 1.3575464161 1.4671972081 0.71487100155 0.80816628637 0.90937090954 1.0172219679 1.1296873865 
1.24411054 1.3575464161 1.4671972081 0.60381225391 0.57404952988 0.69302191562 0.54002084522 0.66790778838 0.79216440667 
0.50083690068 0.63877777351 0.77356233629 0.90072551443 0.45538277901 0.60464862014 0.75168694275 0.89058134991 1.0172219679 
0.40226393329 0.56421707518 0.72561863695 0.87851444325 1.0172219679 1.139116835 0.33975332011 0.51573716537 0.69407236469 
0.86392567495 1.0172219679 1.1502619915 1.2630228569 0.26576171152 0.45685295248 0.6552068806 0.84594095064 1.0172219679 
1.1636342747 1.2852923014 1.3852070904 0.22715816343 0.3129712797 0.49462574053 0.49462574053 0.68021497688 0.77059342779 
1.0172219679 1.0172219679 1.0172219679 1.0172219679 2.1243706857 1.5707963268 1.3676273807 1.271087727 1.2156949949 
2.6469669131 2.1243706857 1.7739652728 1.5707963268 1.447813335 1.3676273807 2.8286213739 2.4613776767 2.1243706857 
1.8705049266 1.6937793186 1.5707963268 1.4827341049 2.9144344902 2.6469669131 2.3709992258 2.1243706857 1.9258976586 
1.7739652728 1.6588585487 1.5707963268 1.7563855631 1.8563003522 1.8785697967 1.9779583789 1.9913306621 2.0024758186 
2.1243706857 2.1243706857 2.1243706857 2.1243706857 2.295651703 2.2776669786 2.2630782103 2.2510113037 2.2408671392 
2.486385773 2.4475202889 2.4159740166 2.3899057108 2.3680303173 2.3494282469 2.6847397011 2.6258554882 2.5773755784 
2.5369440334 2.5028148801 2.4736848652 2.448570738 2.8758309421 2.8018393335 2.7393287203 2.6862098746 2.6407557529 
2.6015718084 2.5675431237 2.5377803997 5.8604937156 5.901393709 5.9723133995 5.9473927383 6.0216547488 6.0927478736 
5.9992719463 6.0767621038 6.1501452836 6.2190157008 6.0578962336 6.1383094565 6.2134963469 0 0.064169606361 
6.1241815303 6.206940195 6.2831853072 0.069688960264 0.13304002361 0.19043743361 6.1990255847 0 0.07624511221 
0.14487585072 0.20642320337 0.26153055843 0.3108719077 0 0.084159722458 0.15900377685 0.22528907359 0.28391336087 
0.3357925689 0.38179159818 0.42269159155 5.8604937156 5.9723133995 5.901393709 6.0927478736 6.0216547488 5.9473927383 
6.2190157008 6.1501452836 6.0767621038 5.9992719463 0.064169606361 0 6.2134963469 6.1383094565 6.0578962336 
0.19043743361 0.13304002361 0.069688960264 6.2831853072 6.206940195 6.1241815303 0.3108719077 0.26153055843 0.20642320337 
0.14487585072 0.07624511221 6.2831853072 6.1990255847 0.42269159155 0.38179159818 0.3357925689 0.28391336087 0.22528907359 
0.15900377685 0.084159722458 0 5.6793730533 5.7091357773 5.5901633916 5.743164462 5.6152775188 5.4910209005 
5.7823484065 5.6444075337 5.5096229709 5.3824597928 5.8278025282 5.678536687 5.5314983644 5.3926039573 5.2659633393 
5.8809213739 5.718968232 5.5575666702 5.4046708639 5.2659633393 5.1440684722 5.9434319871 5.7674481418 5.5891129425 
5.4192596322 5.2659633393 5.1329233157 5.0201624502 6.0174235957 5.8263323547 5.6279784266 5.4372443565 5.2659633393 
5.1195510325 4.9978930058 4.8979782167 1.3852070904 1.2852923014 1.2630228569 1.1636342747 1.1502619915 1.139116835 
1.0172219679 1.0172219679 1.0172219679 1.0172219679 0.84594095064 0.86392567495 0.87851444325 0.89058134991 0.90072551443 
0.6552068806 0.69407236469 0.72561863695 0.75168694275 0.77356233629 0.79216440667 0.45685295248 0.51573716537 0.56421707518 
0.60464862014 0.63877777351 0.66790778838 0.69302191562 0.26576171152 0.33975332011 0.40226393329 0.45538277901 0.50083690068 
0.54002084522 0.57404952988 0.60381225391 
_paraPhiHalf 1 1002 double
0 3.1415926536 0 3.1415926536 1.5707963268 1.5707963268 1.5707963268 1.5707963268 2.5880182947 
0.5535743589 2.5880182947 0.5535743589 0 0 0 0 3.1415926536 3.1415926536 
3.1415926536 3.1415926536 3.1415926536 0.17788134 0.38438696014 0.60631181711 0.82323535693 1.0172219679 1.1799687454 
1.3118704726 1.4175000338 1.5022335207 0.17788134 0.38438696014 0.60631181711 0.82323535693 1.0172219679 1.1799687454 
1.3118704726 1.4175000338 1.5022335207 0.093902416448 0.17615329733 0.2478725152 0.31035131605 0.36486382811 0.41257334776 
0.45449736604 0.4915044461 0.52432611754 0.093902416448 0.17615329733 0.2478725152 0.31035131605 0.36486382811 0.41257334776 
0.45449736604 0.4915044461 0.52432611754 2.9637113136 2.7572056934 2.5352808365 2.3183572967 2.1243706857 1.9616239082 
1.829722181 1.7240926197 1.6393591329 2.9637113136 2.7572056934 2.5352808365 2.3183572967 2.1243706857 1.9616239082 
1.829722181 1.7240926197 1.6393591329 3.0476902371 2.9654393563 2.8937201384 2.8312413375 2.7767288255 2.7290193058 
2.6870952876 2.6500882075 2.617266536 3.0476902371 2.9654393563 2.8937201384 2.8312413375 2.7767288255 2.7290193058 
2.6870952876 2.6500882075 2.617266536 0 0 0 0 3.1415926536 3.1415926536 
3.1415926536 3.1415926536 3.1415926536 0.17788134 0.38438696014 0.60631181711 0.82323535693 1.0172219679 1.1799687454 
1.3118704726 1.4175000338 1.5022335207 0.17788134 0.38438696014 0.60631181711 0.82323535693 1.0172219679 1.1799687454 
1.3118704726 1.4175000338 1.5022335207 0.093902416448 0.17615329733 0.2478725152 0.31035131605 0.36486382811 0.41257334776 
0.45449736604 0.4915044461 0.52432611754 0.093902416448 0.17615329733 0.2478725152 0.31035131605 0.36486382811 0.41257334776 
0.45449736604 0.4915044461 0.52432611754 2.9637113136 2.7572056934 2.5352808365 2.3183572967 2.1243706857 1.9616239082 
1.829722181 1.7240926197 1.6393591329 2.9637113136 2.7572056934 2.5352808365 2.3183572967 2.1243706857 1.9616239082 
1.829722181 1.7240926197 1.6393591329 3.0476902371 2.9654393563 2.8937201384 2.8312413375 2.7767288255 2.7290193058 
2.6870952876 2.6500882075 2.617266536 3.0476902371 2.9654393563 2.8937201384 2.8312413375 2.7767288255 2.7290193058 
2.6870952876 2.6500882075 2.617266536 1.5707963268 1.5707963268 1.5707963268 1.5707963268 1.5707963268 1.5707963268 
1.5707963268 1.5707963268 1.5707963268 1.6743954455 1.7840462375 1.8974821136 2.0119052671 2.1243706857 2.232221744 
2.3334263672 2.426721652 2.5115728246 1.4671972081 1.3575464161 1.24411054 1.1296873865 1.0172219679 0.90937090954 
0.80816628637 0.71487100155 0.63001982895 1.6743954455 1.7840462375 1.8974821136 2.0119052671 2.1243706857 2.232221744 
2.3334263672 2.426721652 2.5115728246 1.4671972081 1.3575464161 1.24411054 1.1296873865 1.0172219679 0.90937090954 
0.80816628637 0.71487100155 0.63001982895 1.5707963268 1.5707963268 1.5707963268 1.5707963268 1.5707963268 1.5707963268 
1.5707963268 1.5707963268 1.5707963268 1.6743954455 1.7840462375 1.8974821136 2.0119052671 2.1243706857 2.232221744 
2.3334263672 2.426721652 2.5115728246 1.4671972081 1.3575464161 1.24411054 1.1296873865 1.0172219679 0.90937090954 
0.80816628637 0.71487100155 0.63001982895 1.6743954455 1.7840462375 1.8974821136 2.0119052671 2.1243706857 2.232221744 
2.3334263672 2.426721652 2.5115728246 1.4671972081 1.3575464161 1.24411054 1.1296873865 1.0172219679 0.90937090954 
0.80816628637 0.71487100155 0.63001982895 2.6824132222 2.7864913217 2.8992382033 3.0186096618 3.1415926536 3.0186096618 
2.8992382033 2.7864913217 2.6824132222 0.45917943135 0.35510133185 0.2423544503 0.12298299178 0 0.12298299178 
0.2423544503 0.35510133185 0.45917943135 0.22715816343 0.49462574053 0.3129712797 0.77059342779 0.68021497688 0.49462574053 
1.0172219679 1.0172219679 1.0172219679 1.0172219679 1.2156949949 1.271087727 1.3676273807 1.5707963268 2.1243706857 
1.3676273807 1.447813335 1.5707963268 1.7739652728 2.1243706857 2.6469669131 1.4827341049 1.5707963268 1.6937793186 
1.8705049266 2.1243706857 2.4613776767 2.8286213739 1.5707963268 1.6588585487 1.7739652728 1.9258976586 2.1243706857 
2.3709992258 2.6469669131 2.9144344902 0.26576171152 0.33975332011 0.45685295248 0.40226393329 0.51573716537 0.6552068806 
0.45538277901 0.56421707518 0.69407236469 0.84594095064 0.50083690068 0.60464862014 0.72561863695 0.86392567495 1.0172219679 
0.54002084522 0.63877777351 0.75168694275 0.87851444325 1.0172219679 1.1636342747 0.57404952988 0.66790778838 0.77356233629 
0.89058134991 1.0172219679 1.1502619915 1.2852923014 0.60381225391 0.69302191562 0.79216440667 0.90072551443 1.0172219679 
1.139116835 1.2630228569 1.3852070904 0.71487100155 0.80816628637 0.80816628637 0.90937090954 0.90937090954 0.90937090954 
1.0172219679 1.0172219679 1.0172219679 1.0172219679 1.1296873865 1.1296873865 1.1296873865 1.1296873865 1.1296873865 
1.24411054 1.24411054 1.24411054 1.24411054 1.24411054 1.24411054 1.3575464161 1.3575464161 1.3575464161 
1.3575464161 1.3575464161 1.3575464161 1.3575464161 1.4671972081 1.4671972081 1.4671972081 1.4671972081 1.4671972081 
1.4671972081 1.4671972081 1.4671972081 1.6743954455 1.6743954455 1.7840462375 1.6743954455 1.7840462375 1.8974821136 
1.6743954455 1.7840462375 1.8974821136 2.0119052671 1.6743954455 1.7840462375 1.8974821136 2.0119052671 2.1243706857 
1.6743954455 1.7840462375 1.8974821136 2.0119052671 2.1243706857 2.232221744 1.6743954455 1.7840462375 1.8974821136 
2.0119052671 2.1243706857 2.232221744 2.3334263672 1.6743954455 1.7840462375 1.8974821136 2.0119052671 2.1243706857 
2.232221744 2.3334263672 2.426721652 1.7563855631 1.8785697967 1.8563003522 2.0024758186 1.9913306621 1.9779583789 
2.1243706857 2.1243706857 2.1243706857 2.1243706857 2.2408671392 2.2510113037 2.2630782103 2.2776669786 2.295651703 
2.3494282469 2.3680303173 2.3899057108 2.4159740166 2.4475202889 2.486385773 2.448570738 2.4736848652 2.5028148801 
2.5369440334 2.5773755784 2.6258554882 2.6847397011 2.5377803997 2.5675431237 2.6015718084 2.6407557529 2.6862098746 
2.7393287203 2.8018393335 2.8758309421 2.718901062 2.8307207459 2.7598010554 2.95115522 2.8800620952 2.8058000847 
3.0774230472 3.00855263 2.9351694502 2.8576792927 3.0774230472 3.1415926536 3.0719036933 2.9967168029 2.91630358 
2.95115522 3.00855263 3.0719036933 3.1415926536 3.0653475414 2.9825888767 2.8307207459 2.8800620952 2.9351694502 
2.9967168029 3.0653475414 3.1415926536 3.0574329311 2.718901062 2.7598010554 2.8058000847 2.8576792927 2.91630358 
2.9825888767 3.0574329311 3.1415926536 2.718901062 2.7598010554 2.8307207459 2.8058000847 2.8800620952 2.95115522 
2.8576792927 2.9351694502 3.00855263 3.0774230472 2.91630358 2.9967168029 3.0719036933 3.1415926536 3.0774230472 
2.9825888767 3.0653475414 3.1415926536 3.0719036933 3.00855263 2.95115522 3.0574329311 3.1415926536 3.0653475414 