# vtk DataFile Version 5.1
vtk output
ASCII
DATASET POLYDATA
POINTS 100 float
-3.95157 4.25684 1.35047 -3.96399 4.24392 1.34794 -4.00061 4.20416 1.34451 
-4.05949 4.14001 1.34092 -4.13766 4.05509 1.33829 -4.23149 3.95353 1.33792 
-4.3371 3.83925 1.34111 -4.45087 3.71536 1.34901 -4.56981 3.58364 1.36242 
-4.69184 3.44443 1.38172 -4.81593 3.29674 1.40679 -4.94207 3.13865 1.43704 
-5.07112 2.96789 1.47151 -5.20454 2.78244 1.509 -5.34405 2.58108 1.5482 
-5.49134 2.3637 1.5879 -5.64774 2.13143 1.62706 -5.81408 1.88645 1.66493 
-5.99062 1.63158 1.70106 -6.17706 1.36982 1.73533 -6.37269 1.10379 1.76782 
-6.57658 0.835339 1.79875 -6.78777 0.565336 1.82836 -7.00552 0.293661 1.85682 
-7.22938 0.0194295 1.88414 -7.45932 -0.258642 1.91016 -7.69568 -0.541807 1.93456 
-7.93907 -0.830916 1.95691 -8.19029 -1.12617 1.97676 -8.45009 -1.42706 1.99376 
-8.71909 -1.73253 2.00771 -8.99761 -2.04126 2.01869 -9.28567 -2.35203 2.02705 
-9.58295 -2.66409 2.03345 -9.88891 -2.97742 2.03881 -10.2029 -3.29275 2.04419 
-10.5243 -3.6115 2.05077 -10.8528 -3.93544 2.05965 -11.1882 -4.26633 2.07183 
-11.531 -4.60554 2.08804 -11.8818 -4.95375 2.10874 -12.2416 -5.31092 2.13405 
-12.6116 -5.67635 2.16373 -12.9926 -6.04911 2.19721 -13.3853 -6.42848 2.23362 
-13.7897 -6.81454 2.27178 -14.2047 -7.20857 2.31032 -14.6283 -7.61332 2.34768 
-15.0575 -8.03297 2.38218 -15.4884 -8.47277 2.41208 -15.9162 -8.93839 2.4357 
-16.3356 -9.43515 2.45148 -16.7416 -9.96712 2.45811 -17.1293 -10.5365 2.45459 
-17.4948 -11.1429 2.4404 -17.8354 -11.7838 2.4155 -18.1495 -12.4542 2.38044 
-18.4372 -13.1475 2.33626 -18.6996 -13.8566 2.28452 -18.9388 -14.5747 2.22711 
-19.1575 -15.296 2.16615 -19.3585 -16.0165 2.10377 -19.5441 -16.7346 2.04191 
-19.7157 -17.4501 1.98223 -19.8736 -18.1649 1.92589 -20.0171 -18.8814 1.87357 
-20.1441 -19.6018 1.82543 -20.2518 -20.3277 1.78118 -20.3369 -21.0589 1.74022 
-20.3963 -21.7935 1.70174 -20.4273 -22.528 1.66492 -20.4283 -23.2573 1.629 
-20.399 -23.9755 1.59343 -20.3407 -24.6768 1.55784 -20.2558 -25.3561 1.52207 
-20.1481 -26.0093 1.48611 -20.0223 -26.6341 1.45001 -19.8835 -27.2299 1.41381 
-19.7366 -27.7974 1.37747 -19.5868 -28.3382 1.34091 -19.4383 -28.8544 1.30396 
-19.2949 -29.3478 1.26653 -19.1598 -29.8196 1.2286 -19.0358 -30.2701 1.19044 
-18.9251 -30.6988 1.1526 -18.8299 -31.1041 1.11598 -18.752 -31.4839 1.08181 
-18.6929 -31.836 1.0515 -18.6538 -32.1583 1.02653 -18.635 -32.4493 1.00819 
-18.6362 -32.7081 0.9974 -18.6557 -32.9346 0.994476 -18.6909 -33.1294 0.99905 
-18.7376 -33.2936 1.01001 -18.791 -33.4288 1.02559 -18.8453 -33.5366 1.04354 
-18.895 -33.6185 1.06138 -18.9346 -33.6759 1.07671 -18.9599 -33.7099 1.08754 
-18.9682 -33.721 1.09255 
LINES 2 100
OFFSETS vtktypeint64
0 100 
CONNECTIVITY vtktypeint64
0 1 2 3 4 5 6 7 8 
9 10 11 12 13 14 15 16 17 
18 19 20 21 22 23 24 25 26 
27 28 29 30 31 32 33 34 35 
36 37 38 39 40 41 42 43 44 
45 46 47 48 49 50 51 52 53 
54 55 56 57 58 59 60 61 62 
63 64 65 66 67 68 69 70 71 
72 73 74 75 76 77 78 79 80 
81 82 83 84 85 86 87 88 89 
90 91 92 93 94 95 96 97 98 
99 
POINT_DATA 100
FIELD FieldData 3
_theta 1 100 double
0 0.031733259127 0.063466518254 0.095199777382 0.12693303651 0.15866629564 0.19039955476 0.22213281389 0.25386607302 
0.28559933214 0.31733259127 0.3490658504 0.38079910953 0.41253236865 0.44426562778 0.47599888691 0.50773214603 0.53946540516 
0.57119866429 0.60293192342 0.63466518254 0.66639844167 0.6981317008 0.72986495992 0.76159821905 0.79333147818 0.82506473731 
0.85679799643 0.88853125556 0.92026451469 0.95199777382 0.98373103294 1.0154642921 1.0471975512 1.0789308103 1.1106640695 
1.1423973286 1.1741305877 1.2058638468 1.237597106 1.2693303651 1.3010636242 1.3327968833 1.3645301425 1.3962634016 
1.4279966607 1.4597299198 1.491463179 1.5231964381 1.5549296972 1.5866629564 1.6183962155 1.6501294746 1.6818627337 
1.7135959929 1.745329252 1.7770625111 1.8087957702 1.8405290294 1.8722622885 1.9039955476 1.9357288068 1.9674620659 
1.999195325 2.0309285841 2.0626618433 2.0943951024 2.1261283615 2.1578616206 2.1895948798 2.2213281389 2.253061398 
2.2847946572 2.3165279163 2.3482611754 2.3799944345 2.4117276937 2.4434609528 2.4751942119 2.506927471 2.5386607302 
2.5703939893 2.6021272484 2.6338605076 2.6655937667 2.6973270258 2.7290602849 2.7607935441 2.7925268032 2.8242600623 
2.8559933214 2.8877265806 2.9194598397 2.9511930988 2.982926358 3.0146596171 3.0463928762 3.0781261353 3.1098593945 
3.1415926536 
_radius 1 100 double
6.5002586284e-15 0.28834017536 0.57687058132 0.86563296048 1.1544090131 1.4425486417 1.7288188089 2.0113443883 2.2876992829 
2.5551596478 2.811072966 3.0532528767 3.2802973084 3.4917493279 3.6880659774 3.8704132696 4.0403485551 4.1994730735 
4.3491342083 4.4902335714 4.6231639045 4.7478660321 4.863974224 4.9710064732 5.068553779 5.1564272229 5.2347321831 
5.3038548556 5.3643659105 5.4168661889 5.4618146975 5.4993846787 5.5293864669 5.5512775154 5.564255642 5.5674086614 
5.559879303 5.5410030483 5.5103880805 5.4679260436 5.4137424568 5.348110367 5.2713580785 5.1838029948 5.0857402565 
4.9775059307 4.8596180141 4.7329761089 4.5990794568 4.4602116791 4.3195423462 4.1811053379 4.0496228679 3.9301482678 
3.8275100017 3.7455807564 3.686497542 3.6500929215 3.6338267884 3.6333173075 3.6432841522 3.6585803733 3.6750462756 
3.6900429708 3.7026253676 3.713383277 3.7240243924 3.7367977908 3.7538650486 3.7767261132 3.8058020823 3.8402569626 
3.8780925955 3.9164819495 3.952243686 3.9823306825 4.0042128644 4.0160714213 4.0167744771 4.0056606652 3.9822039874 
3.9456595001 3.8947882715 3.8277335931 3.7420794668 3.6350815963 3.5040304965 3.346686994 3.1617180835 2.949053767 
2.7100872564 2.4476588797 2.1658011797 1.8692733079 1.5629637704 1.2512767709 0.9376273055 0.62414972189 0.31167839935 
2.3376533465e-14 
_area 1 100 double
0 0.23963731459 0.95731889414 2.1492982487 3.8086451728 5.9230237018 8.4706885489 11.415876816 14.705791089 
18.271249261 22.031856421 25.904863445 29.815477778 33.705834815 37.540272837 41.305713056 45.007334602 48.660903084 
52.283789034 55.886772979 59.468204742 63.011230344 66.484054202 69.842861084 73.036976275 76.015709744 78.735857049 
81.168182837 83.300885593 85.138462545 86.695597416 87.987388179 89.018996473 89.778928468 90.239514387 90.365060484 
90.123876627 89.497971503 88.485858917 87.098713388 85.354479167 83.275132711 80.888930815 78.235173681 75.366993708 
72.348521922 69.245232954 66.110209111 62.974039966 59.847209449 56.737067766 53.671888577 50.719890962 47.993289112 
45.632240167 43.766519668 42.462496371 41.68993282 41.3414 41.280006508 41.375895341 41.525410397 41.660031731 
41.747685252 41.786202592 41.791147175 41.784157499 41.787428742 41.823554574 41.914753754 42.077572147 42.315053114 
42.61139689 42.93231704 43.230790516 43.455639088 43.559555528 43.504026704 43.261031431 42.81226574 42.145021538 
41.24420445 40.083717131 38.623261003 36.815122958 34.62018503 32.026587542 29.062465222 25.797571184 22.334624586 
18.795446681 15.307126008 11.990884411 8.9539347815 6.283904738 4.0457966745 2.2818985001 1.0149108709 0.25370300846 
1.4655544037e-13 
