# vtk DataFile Version 5.1
vtk output
ASCII
DATASET POLYDATA
POINTS 1002 float
-10.1471 -0.0127061 -3.35556 10.6639 -1.01235 -2.56888 -9.68238 0.768507 3.62848 
9.88027 -0.922518 2.29253 -2.89521 2.70897 -2.45047 -2.20371 1.87611 1.05336 
-1.18872 -6.46533 -2.15926 -1.06865 -6.84638 1.73225 18.6966 8.52087 0.791953 
-15.0769 7.76797 0.879832 17.3488 -1.31839 0.311505 -15.027 -4.08576 -0.0273389 
-8.9632 -0.34723 -3.49043 -7.60791 -0.739295 -3.60603 -6.0258 -1.19833 -3.56644 
-4.10848 -1.73798 -3.39431 -1.7801 -2.24892 -3.28415 0.904466 -2.5223 -3.24553 
3.72336 -2.47874 -3.13317 6.38501 -2.16744 -2.94815 8.70703 -1.64874 -2.75638 
-9.87908 0.542369 -3.41021 -9.53259 1.11125 -3.47777 -9.14283 1.65748 -3.58299 
-8.59174 2.19545 -3.62545 -7.76987 2.73924 -3.47158 -6.8684 3.21814 -3.2198 
-6.03475 3.52942 -3.04409 -5.11272 3.56914 -2.90239 -4.02453 3.26674 -2.69673 
-9.62574 -0.753828 -3.34399 -8.99021 -1.51275 -3.2681 -8.22814 -2.29324 -3.12793 
-7.34733 -3.11002 -2.97641 -6.36409 -3.90849 -2.85608 -5.29969 -4.62 -2.75283 
-4.21642 -5.23057 -2.62223 -3.16525 -5.73446 -2.45811 -2.15013 -6.13687 -2.29739 
-11.1497 0.65818 -3.29054 -12.1728 1.40397 -3.22127 -13.1556 2.25724 -3.04829 
-14.0784 3.26866 -2.69527 -14.8675 4.3853 -2.23476 -15.3842 5.42928 -1.7422 
-15.6292 6.28547 -1.14877 -15.6794 6.9649 -0.430728 -15.5017 7.47089 0.283087 
-10.9546 -0.187695 -3.24786 -11.7481 -0.436672 -3.13158 -12.5581 -0.752321 -2.96869 
-13.3425 -1.13055 -2.71455 -13.9795 -1.5813 -2.37247 -14.4645 -2.08147 -2.00015 
-14.8448 -2.63347 -1.62059 -15.0699 -3.23771 -1.17294 -15.1113 -3.76552 -0.621144 
10.2552 -0.779819 -2.60925 9.64985 -0.583471 -2.66354 8.75401 -0.418374 -2.7106 
7.56831 -0.299103 -2.68996 6.09553 -0.251585 -2.62997 4.16282 -0.148093 -2.64479 
1.84372 0.236388 -2.70481 -0.294045 0.92036 -2.68654 -1.8418 1.77015 -2.58273 
9.82467 -1.69547 -2.64013 8.81655 -2.4325 -2.71946 7.57667 -3.18328 -2.8341 
6.14464 -3.87741 -2.94013 4.72303 -4.49566 -2.95119 3.40508 -5.04399 -2.86579 
2.10574 -5.49441 -2.74128 0.846652 -5.86125 -2.58736 -0.256957 -6.18722 -2.38854 
12.2803 -0.103561 -2.38269 13.9197 1.00733 -2.17286 15.4838 2.31506 -1.97664 
16.8787 3.7473 -1.75825 18.0109 5.16741 -1.49082 18.799 6.50154 -1.22892 
19.2252 7.69223 -0.899053 19.3079 8.51907 -0.372506 19.0968 8.77484 0.253594 
11.9767 -0.761168 -2.42983 13.236 -0.54443 -2.29367 14.3932 -0.369559 -2.15187 
15.4612 -0.187108 -1.92809 16.401 0.00138394 -1.57359 17.0993 0.076678 -1.19854 
17.5295 -0.072441 -0.887402 17.7145 -0.42786 -0.553989 17.6421 -0.877046 -0.13417 
-8.5357 0.366986 3.55558 -7.25337 -0.146232 3.38818 -5.72304 -0.799815 3.16034 
-3.85079 -1.52113 2.86923 -1.67413 -2.13731 2.52323 0.760878 -2.45519 2.23321 
3.37366 -2.39224 2.08287 5.89518 -2.04114 2.05749 8.07299 -1.53051 2.13713 
-9.26223 1.26051 3.56328 -8.76311 1.70418 3.40904 -8.16383 2.10831 3.23701 
-7.43196 2.4853 3.10746 -6.60158 2.73533 2.92872 -5.74847 2.75884 2.58147 
-4.87954 2.62218 2.12906 -3.979 2.42311 1.71702 -3.07744 2.16931 1.37527 
-9.3512 0.00743897 3.63166 -8.93282 -0.787524 3.66599 -8.35077 -1.60055 3.73107 
-7.49851 -2.50323 3.6896 -6.39783 -3.52682 3.46117 -5.20252 -4.52687 3.15896 
-4.04372 -5.34339 2.84031 -2.97322 -5.9675 2.46166 -1.98712 -6.45956 2.06743 
-10.5626 1.48442 3.60813 -11.4336 2.25696 3.51663 -12.221 3.03697 3.34124 
-12.9678 3.83858 3.10593 -13.7094 4.68037 2.86107 -14.3018 5.47065 2.58931 
-14.6672 6.17905 2.21906 -14.9165 6.8694 1.7735 -15.0793 7.45403 1.3263 
-10.6309 0.649525 3.59452 -11.614 0.467663 3.45857 -12.6193 0.175084 3.28505 
-13.6923 -0.316832 3.05717 -14.7049 -0.966212 2.67426 -15.3818 -1.62977 2.17582 
-15.6595 -2.31381 1.67318 -15.6449 -3.05601 1.14417 -15.4082 -3.70359 0.554446 
9.13335 -0.794765 2.1957 8.19009 -0.73612 2.00618 7.12484 -0.680606 1.80544 
5.94528 -0.579477 1.6455 4.56471 -0.45095 1.50318 3.01499 -0.268659 1.38053 
1.47647 0.049343 1.28482 0.0689822 0.530222 1.19519 -1.16784 1.15228 1.11445 
9.40235 -1.54547 2.18935 8.70285 -2.25258 2.07531 7.79913 -2.95433 2.04033 
6.71488 -3.62087 2.02309 5.45246 -4.3204 1.93364 4.097 -5.02312 1.86271 
2.72184 -5.60491 1.86092 1.3396 -6.06191 1.83456 0.0426223 -6.46931 1.77266 
11.1819 -0.0908732 2.43835 12.6196 0.909986 2.58042 14.1302 2.0404 2.73163 
15.5016 3.26617 2.861 16.6633 4.5305 2.82843 17.6338 5.68304 2.54639 
18.2878 6.68669 2.14522 18.6075 7.60463 1.74435 18.7302 8.28793 1.2986 
11.2998 -0.609295 2.41911 12.6987 -0.291936 2.50942 14.0329 -0.0643397 2.58784 
15.2423 -0.0113068 2.63777 16.2055 -0.0855819 2.49413 16.811 -0.206653 2.10931 
17.1297 -0.433344 1.67901 17.3284 -0.777754 1.28636 17.4333 -1.09629 0.837425 
-2.80964 2.93195 -2.17968 -2.77607 3.17561 -1.86288 -2.66688 3.37482 -1.54566 
-2.47485 3.43097 -1.19344 -2.35955 3.34127 -0.743867 -2.34299 3.13809 -0.281301 
-2.31627 2.83364 0.0972615 -2.27244 2.48941 0.440649 -2.24057 2.1695 0.777594 
-0.942964 1.54951 -2.3128 1.5982 0.945843 -2.17128 4.62012 1.2755 -1.88429 
7.90917 2.20599 -1.39419 11.0389 3.27158 -0.842573 13.5083 4.4365 -0.378491 
15.2924 5.67847 -0.044029 16.7156 6.85305 0.200203 17.8745 7.85337 0.458828 
-4.35321 4.16127 -2.4756 -5.64654 5.49592 -2.44588 -6.90822 6.3638 -2.17685 
-8.21599 6.86654 -1.64429 -9.59035 7.26236 -1.0971 -10.978 7.55834 -0.688165 
-12.2567 7.77515 -0.285295 -13.3618 7.98852 0.187007 -14.3037 8.04547 0.605639 
-0.582154 1.20391 0.786645 1.46004 0.886243 0.606131 3.87778 1.0607 0.565082 
6.50161 1.59027 0.656622 9.24102 2.4254 0.857493 12.0071 3.72391 1.13354 
14.4729 5.27067 1.30937 16.3577 6.62035 1.24191 17.7058 7.68287 1.02756 
-3.63817 2.97178 1.25407 -5.00016 4.29102 1.552 -6.30038 5.61791 1.89505 
-7.58512 6.70651 2.1748 -8.88982 7.43516 2.25632 -10.2111 7.88453 2.11283 
-11.5291 8.16602 1.86278 -12.8193 8.26998 1.58623 -14.0295 8.13611 1.26195 
-1.16499 -6.80109 -1.91363 -1.19417 -7.1365 -1.63572 -1.28032 -7.50051 -1.30239 
-1.37665 -7.873 -0.849735 -1.44823 -8.09926 -0.285746 -1.45771 -8.07039 0.293274 
-1.37473 -7.87528 0.812101 -1.25119 -7.60744 1.22434 -1.15014 -7.25998 1.51524 
0.365464 -6.59596 -2.17679 2.12688 -6.65237 -2.17344 4.1094 -6.57869 -2.13083 
6.21198 -6.41244 -2.05671 8.27213 -6.16144 -1.90322 10.3935 -5.55461 -1.59793 
12.7111 -4.42162 -1.16699 14.8722 -3.13513 -0.677675 16.4211 -2.10618 -0.16835 
-2.68247 -6.50488 -2.00264 -4.2846 -6.50026 -1.84187 -5.92677 -6.45031 -1.68098 
-7.51272 -6.32314 -1.51308 -9.04395 -6.0713 -1.30364 -10.5526 -5.71569 -1.05413 
-11.9411 -5.3347 -0.81265 -13.1264 -4.97542 -0.579112 -14.1467 -4.59312 -0.318349 
0.585289 -6.92746 1.45613 2.56487 -6.8761 1.18674 4.88135 -6.65596 0.954004 
7.34673 -6.39816 0.860526 9.65341 -6.12227 0.908436 11.7248 -5.50794 0.942417 
13.6239 -4.43602 0.861534 15.2322 -3.25157 0.68774 16.4419 -2.22208 0.485842 
-2.66146 -6.99478 1.91434 -4.33952 -7.13365 2.08321 -6.10857 -7.15382 2.12176 
-7.93396 -6.93451 2.01634 -9.73422 -6.58771 1.87444 -11.3378 -6.25135 1.68479 
-12.5989 -5.81053 1.33799 -13.5603 -5.22996 0.867831 -14.351 -4.64726 0.395392 
19.5943 9.0592 0.891366 20.453 8.95967 0.990717 21.2584 8.00391 1.01521 
21.7203 6.55851 0.969151 21.5807 5.17621 0.900123 21.0362 3.91572 0.830437 
20.2858 2.56036 0.764785 19.3232 1.11774 0.665869 18.2993 -0.215385 0.501427 
-16.0685 7.03914 0.72879 -16.9125 6.04417 0.557322 -17.4245 4.90411 0.395196 
-17.666 3.66132 0.213992 -17.8387 2.36977 0.017901 -17.8391 1.0362 -0.128194 
-17.4517 -0.450865 -0.179695 -16.7484 -1.97132 -0.150698 -15.9066 -3.2136 -0.0894784 
-8.59112 0.182222 -3.55359 -8.17472 0.70223 -3.62671 -7.11092 -0.26551 -3.63685 
-7.64074 1.14606 -3.71998 -6.5264 0.150954 -3.66013 -5.34013 -0.83823 -3.53682 
-6.82234 1.54212 -3.69976 -5.72469 0.459697 -3.67022 -4.49987 -0.553796 -3.49471 
-3.16387 -1.49843 -3.35811 -5.90615 1.93625 -3.48848 -4.75336 0.712126 -3.56964 
-3.48738 -0.33752 -3.42277 -2.05589 -1.2789 -3.29936 -0.528993 -2.01972 -3.26917 
-5.17618 2.25744 -3.22897 -3.91931 0.917356 -3.36432 -2.44204 -0.191733 -3.29745 
-0.827079 -1.06215 -3.20062 0.883873 -1.73968 -3.20671 2.45572 -2.18007 -3.19732 
-4.36825 2.36704 -3.01501 -3.06736 1.02722 -3.14017 -1.30209 -0.116642 -3.14066 
0.591899 -0.875398 -3.07349 2.45543 -1.38098 -3.09263 4.13889 -1.7306 -3.11186 
5.44155 -1.96186 -3.04253 -3.19407 2.17836 -2.80378 -1.80502 1.02097 -2.9121 
0.192118 0.00635771 -2.94057 2.34393 -0.613573 -2.89409 4.25262 -0.905459 -2.90622 
5.88132 -1.10462 -2.95389 7.17135 -1.28447 -2.92087 8.0745 -1.45525 -2.83319 
-10.8794 1.2947 -3.33367 -11.8616 2.12538 -3.23372 -10.4919 1.93502 -3.393 
-12.8018 3.09205 -2.95762 -11.397 2.86028 -3.21318 -10.0478 2.5984 -3.44181 
-13.6866 4.22251 -2.47453 -12.2749 3.92567 -2.80947 -10.8675 3.64483 -3.13681 
-9.44083 3.30478 -3.35423 -14.3489 5.38128 -1.96414 -13.0552 5.10325 -2.27516 
-11.5989 4.74601 -2.67287 -10.1402 4.41666 -2.97776 -8.54194 3.93943 -3.13469 
-14.6564 6.36111 -1.45997 -13.5174 6.21149 -1.77249 -12.1203 5.85838 -2.15103 
-10.6116 5.4407 -2.54822 -9.05774 4.98116 -2.83577 -7.47376 4.37433 -2.98536 
-14.7187 7.10288 -0.814671 -13.6452 7.03762 -1.20871 -12.3512 6.80233 -1.57887 
-10.8547 6.39669 -1.98542 -9.31467 5.87964 -2.4399 -7.7946 5.32175 -2.78983 
-6.3995 4.60407 -2.91948 -14.6137 7.66159 -0.0672866 -13.5845 7.58612 -0.50828 
-12.381 7.4004 -0.927846 -10.9704 7.12508 -1.30737 -9.47519 6.68341 -1.78875 
-8.01153 6.16102 -2.34177 -6.63166 5.53376 -2.69671 -5.35656 4.56411 -2.75852 
-13.1736 8.29592 0.916754 -11.8437 8.37174 1.13884 -12.1294 8.15099 0.406487 
-10.4364 8.32894 1.3821 -10.6901 8.29777 0.57043 -10.917 7.93384 -0.106656 
-9.06878 8.08759 1.68861 -9.22017 8.37954 0.86141 -9.41401 8.13706 0.0667229 
-9.57834 7.69299 -0.527086 -7.75116 7.44593 1.83066 -7.8459 8.05291 1.21101 
-7.91597 8.16226 0.372562 -8.06602 7.8167 -0.38172 -8.21403 7.37056 -0.994862 
-6.44244 6.32686 1.64476 -6.54839 7.05476 1.26339 -6.55531 7.55645 0.61656 
-6.58792 7.60783 -0.190766 -6.78137 7.36104 -0.90327 -6.93503 6.95036 -1.54862 
-5.11465 4.88761 1.29245 -5.24109 5.53069 0.979951 -5.2969 6.16237 0.535504 
[...]
POINT_DATA 1002
FIELD FieldData 4
_paraPhi 1 1002 double
6.2831853072 3.1415926536 6.2831853072 3.1415926536 4.7123889804 4.7123889804 1.5707963268 1.5707963268 3.6951670125 
5.7296109483 2.5880182947 0.5535743589 6.2831853072 6.2831853072 6.2831853072 6.2831853072 3.1415926536 3.1415926536 
3.1415926536 3.1415926536 3.1415926536 6.1053039672 5.898798347 5.6768734901 5.4599499503 5.2659633393 5.1032165617 
4.9713148346 4.8656852733 4.7809517865 0.17788134 0.38438696014 0.60631181711 0.82323535693 1.0172219679 1.1799687454 
1.3118704726 1.4175000338 1.5022335207 6.1892828907 6.1070320098 6.035312792 5.9728339911 5.9183214791 5.8706119594 
5.8286879411 5.7916808611 5.7588591896 0.093902416448 0.17615329733 0.2478725152 0.31035131605 0.36486382811 0.41257334776 
0.45449736604 0.4915044461 0.52432611754 3.3194739936 3.5259796137 3.7479044707 3.9648280105 4.1588146215 4.321561399 
4.4534631262 4.5590926874 4.6438261743 2.9637113136 2.7572056934 2.5352808365 2.3183572967 2.1243706857 1.9616239082 
1.829722181 1.7240926197 1.6393591329 3.23549507 3.3177459509 3.3894651688 3.4519439696 3.5064564817 3.5541660013 
3.5960900196 3.6330970997 3.6659187711 3.0476902371 2.9654393563 2.8937201384 2.8312413375 2.7767288255 2.7290193058 
2.6870952876 2.6500882075 2.617266536 6.2831853072 6.2831853072 6.2831853072 6.2831853072 3.1415926536 3.1415926536 
3.1415926536 3.1415926536 3.1415926536 6.1053039672 5.898798347 5.6768734901 5.4599499503 5.2659633393 5.1032165617 
4.9713148346 4.8656852733 4.7809517865 0.17788134 0.38438696014 0.60631181711 0.82323535693 1.0172219679 1.1799687454 
1.3118704726 1.4175000338 1.5022335207 6.1892828907 6.1070320098 6.035312792 5.9728339911 5.9183214791 5.8706119594 
5.8286879411 5.7916808611 5.7588591896 0.093902416448 0.17615329733 0.2478725152 0.31035131605 0.36486382811 0.41257334776 
0.45449736604 0.4915044461 0.52432611754 3.3194739936 3.5259796137 3.7479044707 3.9648280105 4.1588146215 4.321561399 
4.4534631262 4.5590926874 4.6438261743 2.9637113136 2.7572056934 2.5352808365 2.3183572967 2.1243706857 1.9616239082 
1.829722181 1.7240926197 1.6393591329 3.23549507 3.3177459509 3.3894651688 3.4519439696 3.5064564817 3.5541660013 
3.5960900196 3.6330970997 3.6659187711 3.0476902371 2.9654393563 2.8937201384 2.8312413375 2.7767288255 2.7290193058 
2.6870952876 2.6500882075 2.617266536 4.7123889804 4.7123889804 4.7123889804 4.7123889804 4.7123889804 4.7123889804 
4.7123889804 4.7123889804 4.7123889804 4.6087898617 4.4991390697 4.3857031936 4.2712800401 4.1588146215 4.0509635631 
3.94975894 3.8564636551 3.7716124825 4.8159880991 4.9256388911 5.0390747672 5.1534979207 5.2659633393 5.3738143976 
5.4750190208 5.5683143056 5.6531654782 4.6087898617 4.4991390697 4.3857031936 4.2712800401 4.1588146215 4.0509635631 
3.94975894 3.8564636551 3.7716124825 4.8159880991 4.9256388911 5.0390747672 5.1534979207 5.2659633393 5.3738143976 
5.4750190208 5.5683143056 5.6531654782 1.5707963268 1.5707963268 1.5707963268 1.5707963268 1.5707963268 1.5707963268 
1.5707963268 1.5707963268 1.5707963268 1.6743954455 1.7840462375 1.8974821136 2.0119052671 2.1243706857 2.232221744 
2.3334263672 2.426721652 2.5115728246 1.4671972081 1.3575464161 1.24411054 1.1296873865 1.0172219679 0.90937090954 
0.80816628637 0.71487100155 0.63001982895 1.6743954455 1.7840462375 1.8974821136 2.0119052671 2.1243706857 2.232221744 
2.3334263672 2.426721652 2.5115728246 1.4671972081 1.3575464161 1.24411054 1.1296873865 1.0172219679 0.90937090954 
0.80816628637 0.71487100155 0.63001982895 3.6007720849 3.4966939854 3.3839471039 3.2645756454 3.1415926536 3.0186096618 
2.8992382033 2.7864913217 2.6824132222 5.8240058758 5.9280839753 6.0408308569 6.1602023154 6.2831853072 0.12298299178 
0.2423544503 0.35510133185 0.45917943135 6.0560271438 5.7885595667 5.9702140275 5.5125918794 5.6029703303 5.7885595667 
5.2659633393 5.2659633393 5.2659633393 5.2659633393 5.0674903122 5.0120975802 4.9155579264 4.7123889804 4.1588146215 
4.9155579264 4.8353719722 4.7123889804 4.5092200343 4.1588146215 3.6362183941 4.8004512023 4.7123889804 4.5894059886 
4.4126803806 4.1588146215 3.8218076305 3.4545639333 4.7123889804 4.6243267584 4.5092200343 4.3572876485 4.1588146215 
3.9121860814 3.6362183941 3.368750817 6.0174235957 5.9434319871 5.8263323547 5.8809213739 5.7674481418 5.6279784266 
5.8278025282 5.718968232 5.5891129425 5.4372443565 5.7823484065 5.678536687 5.5575666702 5.4192596322 5.2659633393 
5.743164462 5.6444075337 5.5314983644 5.4046708639 5.2659633393 5.1195510325 5.7091357773 5.6152775188 5.5096229709 
5.3926039573 5.2659633393 5.1329233157 4.9978930058 5.6793730533 5.5901633916 5.4910209005 5.3824597928 5.2659633393 
5.1440684722 5.0201624502 4.8979782167 5.5683143056 5.4750190208 5.4750190208 5.3738143976 5.3738143976 5.3738143976 
5.2659633393 5.2659633393 5.2659633393 5.2659633393 5.1534979207 5.1534979207 5.1534979207 5.1534979207 5.1534979207 
5.0390747672 5.0390747672 5.0390747672 5.0390747672 5.0390747672 5.0390747672 4.9256388911 4.9256388911 4.9256388911 
4.9256388911 4.9256388911 4.9256388911 4.9256388911 4.8159880991 4.8159880991 4.8159880991 4.8159880991 4.8159880991 
4.8159880991 4.8159880991 4.8159880991 4.6087898617 4.6087898617 4.4991390697 4.6087898617 4.4991390697 4.3857031936 
4.6087898617 4.4991390697 4.3857031936 4.2712800401 4.6087898617 4.4991390697 4.3857031936 4.2712800401 4.1588146215 
4.6087898617 4.4991390697 4.3857031936 4.2712800401 4.1588146215 4.0509635631 4.6087898617 4.4991390697 4.3857031936 
4.2712800401 4.1588146215 4.0509635631 3.94975894 4.6087898617 4.4991390697 4.3857031936 4.2712800401 4.1588146215 
4.0509635631 3.94975894 3.8564636551 4.526799744 4.4046155105 4.426884955 4.2807094886 4.2918546451 4.3052269283 
4.1588146215 4.1588146215 4.1588146215 4.1588146215 4.042318168 4.0321740035 4.0201070968 4.0055183285 3.9875336042 
3.9337570603 3.9151549899 3.8932795963 3.8672112905 3.8356650183 3.7967995342 3.8346145692 3.809500442 3.7803704271 
3.7462412737 3.7058097288 3.657329819 3.5984456061 3.7454049075 3.7156421835 3.6816134988 3.6424295543 3.5969754326 
3.5438565869 3.4813459737 3.4073543651 3.5642842451 3.4524645613 3.5233842518 3.3320300872 3.403123212 3.4773852225 
3.20576226 3.2746326772 3.348015857 3.4255060145 3.0774230472 3.1415926536 3.2112816139 3.2864685043 3.3668817272 
2.95115522 3.00855263 3.0719036933 3.1415926536 3.2178377658 3.3005964304 2.8307207459 2.8800620952 2.9351694502 
2.9967168029 3.0653475414 3.1415926536 3.225752376 2.718901062 2.7598010554 2.8058000847 2.8576792927 2.91630358 
2.9825888767 3.0574329311 3.1415926536 3.5642842451 3.5233842518 3.4524645613 3.4773852225 3.403123212 3.3320300872 
3.4255060145 3.348015857 3.2746326772 3.20576226 3.3668817272 3.2864685043 3.2112816139 3.1415926536 3.0774230472 
3.3005964304 3.2178377658 3.1415926536 3.0719036933 3.00855263 2.95115522 3.225752376 3.1415926536 3.0653475414 
2.9967168029 2.9351694502 2.8800620952 2.8307207459 3.1415926536 3.0574329311 2.9825888767 2.91630358 2.8576792927 
2.8058000847 2.7598010554 2.718901062 4.526799744 4.426884955 4.4046155105 4.3052269283 4.2918546451 4.2807094886 
4.1588146215 4.1588146215 4.1588146215 4.1588146215 3.9875336042 4.0055183285 4.0201070968 4.0321740035 4.042318168 
3.7967995342 3.8356650183 3.8672112905 3.8932795963 3.9151549899 3.9337570603 3.5984456061 3.657329819 3.7058097288 
3.7462412737 3.7803704271 3.809500442 3.8346145692 3.4073543651 3.4813459737 3.5438565869 3.5969754326 3.6424295543 
3.6816134988 3.7156421835 3.7454049075 4.7123889804 4.8004512023 4.6243267584 4.9155579264 4.7123889804 4.5092200343 
5.0674903122 4.8353719722 4.5894059886 4.3572876485 5.2659633393 5.0120975802 4.7123889804 4.4126803806 4.1588146215 
5.5125918794 5.2659633393 4.9155579264 4.5092200343 4.1588146215 3.9121860814 5.7885595667 5.6029703303 5.2659633393 
4.7123889804 4.1588146215 3.8218076305 3.6362183941 6.0560271438 5.9702140275 5.7885595667 5.2659633393 4.1588146215 
3.6362183941 3.4545639333 3.368750817 0.22715816343 0.49462574053 0.3129712797 0.77059342779 0.68021497688 0.49462574053 
1.0172219679 1.0172219679 1.0172219679 1.0172219679 1.2156949949 1.271087727 1.3676273807 1.5707963268 2.1243706857 
1.3676273807 1.447813335 1.5707963268 1.7739652728 2.1243706857 2.6469669131 1.4827341049 1.5707963268 1.6937793186 
1.8705049266 2.1243706857 2.4613776767 2.8286213739 1.5707963268 1.6588585487 1.7739652728 1.9258976586 2.1243706857 
2.3709992258 2.6469669131 2.9144344902 1.7563855631 1.8785697967 1.8563003522 2.0024758186 1.9913306621 1.9779583789 
2.1243706857 2.1243706857 2.1243706857 2.1243706857 2.2408671392 2.2510113037 2.2630782103 2.2776669786 2.295651703 
2.3494282469 2.3680303173 2.3899057108 2.4159740166 2.4475202889 2.486385773 2.448570738 2.4736848652 2.5028148801 
2.5369440334 2.5773755784 2.6258554882 2.6847397011 2.5377803997 2.5675431237 2.6015718084 2.6407557529 2.6862098746 
2.7393287203 2.8018393335 2.8758309421 1.6743954455 1.6743954455 1.7840462375 1.6743954455 1.7840462375 1.8974821136 
1.6743954455 1.7840462375 1.8974821136 2.0119052671 1.6743954455 1.7840462375 1.8974821136 2.0119052671 2.1243706857 
1.6743954455 1.7840462375 1.8974821136 2.0119052671 2.1243706857 2.232221744 1.6743954455 1.7840462375 1.8974821136 
2.0119052671 2.1243706857 2.232221744 2.3334263672 1.6743954455 1.7840462375 1.8974821136 2.0119052671 2.1243706857 
2.232221744 2.3334263672 2.426721652 1.4671972081 1.3575464161 1.4671972081 1.24411054 1.3575464161 1.4671972081 
1.1296873865 1.24411054 1.3575464161 1.4671972081 1.0172219679 1.1296873865 1.24411054 1.3575464161 1.4671972081 
0.90937090954 1.0172219679 1.1296873865 1.24411054 1.3575464161 1.4671972081 0.80816628637 0.90937090954 1.0172219679 
1.1296873865 1.24411054 1.3575464161 1.4671972081 0.71487100155 0.80816628637 0.90937090954 1.0172219679 1.1296873865 
1.24411054 1.3575464161 1.4671972081 0.60381225391 0.57404952988 0.69302191562 0.54002084522 0.66790778838 0.79216440667 
0.50083690068 0.63877777351 0.77356233629 0.90072551443 0.45538277901 0.60464862014 0.75168694275 0.89058134991 1.0172219679 
0.40226393329 0.56421707518 0.72561863695 0.87851444325 1.0172219679 1.139116835 0.33975332011 0.51573716537 0.69407236469 
0.86392567495 1.0172219679 1.1502619915 1.2630228569 0.26576171152 0.45685295248 0.6552068806 0.84594095064 1.0172219679 
1.1636342747 1.2852923014 1.3852070904 0.22715816343 0.3129712797 0.49462574053 0.49462574053 0.68021497688 0.77059342779 
1.0172219679 1.0172219679 1.0172219679 1.0172219679 2.1243706857 1.5707963268 1.3676273807 1.271087727 1.2156949949 
2.6469669131 2.1243706857 1.7739652728 1.5707963268 1.447813335 1.3676273807 2.8286213739 2.4613776767 2.1243706857 
1.8705049266 1.6937793186 1.5707963268 1.4827341049 2.9144344902 2.6469669131 2.3709992258 2.1243706857 1.9258976586 
1.7739652728 1.6588585487 1.5707963268 1.7563855631 1.8563003522 1.8785697967 1.9779583789 1.9913306621 2.0024758186 
2.1243706857 2.1243706857 2.1243706857 2.1243706857 2.295651703 2.2776669786 2.2630782103 2.2510113037 2.2408671392 
2.486385773 2.4475202889 2.4159740166 2.3899057108 2.3680303173 2.3494282469 2.6847397011 2.6258554882 2.5773755784 
2.5369440334 2.5028148801 2.4736848652 2.448570738 2.8758309421 2.8018393335 2.7393287203 2.6862098746 2.6407557529 
2.6015718084 2.5675431237 2.5377803997 5.8604937156 5.901393709 5.9723133995 5.9473927383 6.0216547488 6.0927478736 
5.9992719463 6.0767621038 6.1501452836 6.2190157008 6.0578962336 6.1383094565 6.2134963469 0 0.064169606361 
6.1241815303 6.206940195 6.2831853072 0.069688960264 0.13304002361 0.19043743361 6.1990255847 0 0.07624511221 
0.14487585072 0.20642320337 0.26153055843 0.3108719077 0 0.084159722458 0.15900377685 0.22528907359 0.28391336087 
0.3357925689 0.38179159818 0.42269159155 5.8604937156 5.9723133995 5.901393709 6.0927478736 6.0216547488 5.9473927383 
6.2190157008 6.1501452836 6.0767621038 5.9992719463 0.064169606361 0 6.2134963469 6.1383094565 6.0578962336 
0.19043743361 0.13304002361 0.069688960264 6.2831853072 6.206940195 6.1241815303 0.3108719077 0.26153055843 0.20642320337 
0.14487585072 0.07624511221 6.2831853072 6.1990255847 0.42269159155 0.38179159818 0.3357925689 0.28391336087 0.22528907359 
0.15900377685 0.084159722458 0 5.6793730533 5.7091357773 5.5901633916 5.743164462 5.6152775188 5.4910209005 
5.7823484065 5.6444075337 5.5096229709 5.3824597928 5.8278025282 5.678536687 5.5314983644 5.3926039573 5.2659633393 
5.8809213739 5.718968232 5.5575666702 5.4046708639 5.2659633393 5.1440684722 5.9434319871 5.7674481418 5.5891129425 
5.4192596322 5.2659633393 5.1329233157 5.0201624502 6.0174235957 5.8263323547 5.6279784266 5.4372443565 5.2659633393 
5.1195510325 4.9978930058 4.8979782167 1.3852070904 1.2852923014 1.2630228569 1.1636342747 1.1502619915 1.139116835 
1.0172219679 1.0172219679 1.0172219679 1.0172219679 0.84594095064 0.86392567495 0.87851444325 0.89058134991 0.90072551443 
0.6552068806 0.69407236469 0.72561863695 0.75168694275 0.77356233629 0.79216440667 0.45685295248 0.51573716537 0.56421707518 
0.60464862014 0.63877777351 0.66790778838 0.69302191562 0.26576171152 0.33975332011 0.40226393329 0.45538277901 0.50083690068 
0.54002084522 0.57404952988 0.60381225391 
_paraPhiHalf 1 1002 double
0 3.1415926536 0 3.1415926536 1.5707963268 1.5707963268 1.5707963268 1.5707963268 2.5880182947 
0.5535743589 2.5880182947 0.5535743589 0 0 0 0 3.1415926536 3.1415926536 
3.1415926536 3.1415926536 3.1415926536 0.17788134 0.38438696014 0.60631181711 0.82323535693 1.0172219679 1.1799687454 
1.3118704726 1.4175000338 1.5022335207 0.17788134 0.38438696014 0.60631181711 0.82323535693 1.0172219679 1.1799687454 
1.3118704726 1.4175000338 1.5022335207 0.093902416448 0.17615329733 0.2478725152 0.31035131605 0.36486382811 0.41257334776 
0.45449736604 0.4915044461 0.52432611754 0.093902416448 0.17615329733 0.2478725152 0.31035131605 0.36486382811 0.41257334776 
0.45449736604 0.4915044461 0.52432611754 2.9637113136 2.7572056934 2.5352808365 2.3183572967 2.1243706857 1.9616239082 
1.829722181 1.7240926197 1.6393591329 2.9637113136 2.7572056934 2.5352808365 2.3183572967 2.1243706857 1.9616239082 
1.829722181 1.7240926197 1.6393591329 3.0476902371 2.9654393563 2.8937201384 2.8312413375 2.7767288255 2.7290193058 
2.6870952876 2.6500882075 2.617266536 3.0476902371 2.9654393563 2.8937201384 2.8312413375 2.7767288255 2.7290193058 
2.6870952876 2.6500882075 2.617266536 0 0 0 0 3.1415926536 3.1415926536 
3.1415926536 3.1415926536 3.1415926536 0.17788134 0.38438696014 0.60631181711 0.82323535693 1.0172219679 1.1799687454 
1.3118704726 1.4175000338 1.5022335207 0.17788134 0.38438696014 0.60631181711 0.82323535693 1.0172219679 1.1799687454 
1.3118704726 1.4175000338 1.5022335207 0.093902416448 0.17615329733 0.2478725152 0.31035131605 0.36486382811 0.41257334776 
0.45449736604 0.4915044461 0.52432611754 0.093902416448 0.17615329733 0.2478725152 0.31035131605 0.36486382811 0.41257334776 
0.45449736604 0.4915044461 0.52432611754 2.9637113136 2.7572056934 2.5352808365 2.3183572967 2.1243706857 1.9616239082 
1.829722181 1.7240926197 1.6393591329 2.9637113136 2.7572056934 2.5352808365 2.3183572967 2.1243706857 1.9616239082 
1.829722181 1.7240926197 1.6393591329 3.0476902371 2.9654393563 2.8937201384 2.8312413375 2.7767288255 2.7290193058 
2.6870952876 2.6500882075 2.617266536 3.0476902371 2.9654393563 2.8937201384 2.8312413375 2.7767288255 2.7290193058 
2.6870952876 2.6500882075 2.617266536 1.5707963268 1.5707963268 1.5707963268 1.5707963268 1.5707963268 1.5707963268 
1.5707963268 1.5707963268 1.5707963268 1.6743954455 1.7840462375 1.8974821136 2.0119052671 2.1243706857 2.232221744 
2.3334263672 2.426721652 2.5115728246 1.4671972081 1.3575464161 1.24411054 1.1296873865 1.0172219679 0.90937090954 
0.80816628637 0.71487100155 0.63001982895 1.6743954455 1.7840462375 1.8974821136 2.0119052671 2.1243706857 2.232221744 
2.3334263672 2.426721652 2.5115728246 1.4671972081 1.3575464161 1.24411054 1.1296873865 1.0172219679 0.90937090954 
0.80816628637 0.71487100155 0.63001982895 1.5707963268 1.5707963268 1.5707963268 1.5707963268 1.5707963268 1.5707963268 
1.5707963268 1.5707963268 1.5707963268 1.6743954455 1.7840462375 1.8974821136 2.0119052671 2.1243706857 2.232221744 
2.3334263672 2.426721652 2.5115728246 1.4671972081 1.3575464161 1.24411054 1.1296873865 1.0172219679 0.90937090954 
0.80816628637 0.71487100155 0.63001982895 1.6743954455 1.7840462375 1.8974821136 2.0119052671 2.1243706857 2.232221744 
2.3334263672 2.426721652 2.5115728246 1.4671972081 1.3575464161 1.24411054 1.1296873865 1.0172219679 0.90937090954 
0.80816628637 0.71487100155 0.63001982895 2.6824132222 2.7864913217 2.8992382033 3.0186096618 3.1415926536 3.0186096618 
2.8992382033 2.7864913217 2.6824132222 0.45917943135 0.35510133185 0.2423544503 0.12298299178 0 0.12298299178 
0.2423544503 0.35510133185 0.45917943135 0.22715816343 0.49462574053 0.3129712797 0.77059342779 0.68021497688 0.49462574053 
1.0172219679 1.0172219679 1.0172219679 1.0172219679 1.2156949949 1.271087727 1.3676273807 1.5707963268 2.1243706857 
1.3676273807 1.447813335 1.5707963268 1.7739652728 2.1243706857 2.6469669131 1.4827341049 1.5707963268 1.6937793186 
1.8705049266 2.1243706857 2.4613776767 2.8286213739 1.5707963268 1.6588585487 1.7739652728 1.9258976586 2.1243706857 
2.3709992258 2.6469669131 2.9144344902 0.26576171152 0.33975332011 0.45685295248 0.40226393329 0.51573716537 0.6552068806 
0.45538277901 0.56421707518 0.69407236469 0.84594095064 0.50083690068 0.60464862014 0.72561863695 0.86392567495 1.0172219679 
0.54002084522 0.63877777351 0.75168694275 0.87851444325 1.0172219679 1.1636342747 0.57404952988 0.66790778838 0.77356233629 
0.89058134991 1.0172219679 1.1502619915 1.2852923014 0.60381225391 0.69302191562 0.79216440667 0.90072551443 1.0172219679 
1.139116835 1.2630228569 1.3852070904 0.71487100155 0.80816628637 0.80816628637 0.90937090954 0.90937090954 0.90937090954 
1.0172219679 1.0172219679 1.0172219679 1.0172219679 1.1296873865 1.1296873865 1.1296873865 1.1296873865 1.1296873865 
1.24411054 1.24411054 1.24411054 1.24411054 1.24411054 1.24411054 1.3575464161 1.3575464161 1.3575464161 
1.3575464161 1.3575464161 1.3575464161 1.3575464161 1.4671972081 1.4671972081 1.4671972081 1.4671972081 1.4671972081 
1.4671972081 1.4671972081 1.4671972081 1.6743954455 1.6743954455 1.7840462375 1.6743954455 1.7840462375 1.8974821136 
1.6743954455 1.7840462375 1.8974821136 2.0119052671 1.6743954455 1.7840462375 1.8974821136 2.0119052671 2.1243706857 
1.6743954455 1.7840462375 1.8974821136 2.0119052671 2.1243706857 2.232221744 1.6743954455 1.7840462375 1.8974821136 
2.0119052671 2.1243706857 2.232221744 2.3334263672 1.6743954455 1.7840462375 1.8974821136 2.0119052671 2.1243706857 
2.232221744 2.3334263672 2.426721652 1.7563855631 1.8785697967 1.8563003522 2.0024758186 1.9913306621 1.9779583789 
2.1243706857 2.1243706857 2.1243706857 2.1243706857 2.2408671392 2.2510113037 2.2630782103 2.2776669786 2.295651703 
2.3494282469 2.3680303173 2.3899057108 2.4159740166 2.4475202889 2.486385773 2.448570738 2.4736848652 2.5028148801 
2.5369440334 2.5773755784 2.6258554882 2.6847397011 2.5377803997 2.5675431237 2.6015718084 2.6407557529 2.6862098746 
2.7393287203 2.8018393335 2.8758309421 2.718901062 2.8307207459 2.7598010554 2.95115522 2.8800620952 2.8058000847 
3.0774230472 3.00855263 2.9351694502 2.8576792927 3.0774230472 3.1415926536 3.0719036933 2.9967168029 2.91630358 
2.95115522 3.00855263 3.0719036933 3.1415926536 3.0653475414 2.9825888767 2.8307207459 2.8800620952 2.9351694502 
2.9967168029 3.0653475414 3.1415926536 3.0574329311 2.718901062 2.7598010554 2.8058000847 2.8576792927 2.91630358 
2.9825888767 3.0574329311 3.1415926536 2.718901062 2.7598010554 2.8307207459 2.8058000847 2.8800620952 2.95115522 
2.8576792927 2.9351694502 3.00855263 3.0774230472 2.91630358 2.9967168029 3.0719036933 3.1415926536 3.0774230472 
2.9825888767 3.0653475414 3.1415926536 3.0719036933 3.00855263 2.95115522 3.0574329311 3.1415926536 3.0653475414 