# vtk DataFile Version 5.1
vtk output
ASCII
DATASET POLYDATA
POINTS 1002 float
-10.5331 0.745668 -2.15987 -25.1422 -14.3695 -5.01205 -9.19111 -2.12474 4.07406 
-24.2732 -16.0413 -0.47671 -13.8308 -7.1451 -3.33355 -14.5516 -8.37335 -0.223905 
-20.7961 -3.39035 -0.961055 -20.7919 -3.56669 3.08558 -24.0088 -26.0427 -5.03692 
-1.26923 -1.16208 0.355778 -29.3381 -19.7355 -2.69311 -10.256 5.91781 2.89212 
-11.4788 -0.0329999 -2.34871 -12.5748 -0.834885 -2.59139 -13.8638 -1.73834 -2.79617 
-15.4135 -3.00263 -2.91595 -17.3236 -4.69324 -3.13152 -19.465 -6.61599 -3.55568 
-21.3924 -8.65228 -4.03008 -22.876 -10.6953 -4.43311 -24.0821 -12.6041 -4.76283 
-10.3182 0.235644 -2.43465 -10.1171 -0.339767 -2.76568 -9.96577 -0.984583 -3.13367 
-9.94103 -1.72389 -3.45727 -10.0953 -2.65271 -3.66803 -10.4256 -3.80047 -3.76967 
-10.9438 -4.92801 -3.77855 -11.6962 -5.79652 -3.68472 -12.6893 -6.47296 -3.51067 
-11.3425 0.7282 -1.99002 -12.2711 0.635981 -1.80111 -13.3456 0.458363 -1.63424 
-14.5211 0.16002 -1.50298 -15.7216 -0.295154 -1.36492 -16.8946 -0.876767 -1.21908 
-17.9999 -1.51791 -1.11208 -19.0152 -2.1729 -1.04276 -19.9463 -2.80425 -0.990741 
-9.42821 1.17413 -2.14507 -8.13902 1.51408 -2.07167 -6.74554 1.70108 -1.89802 
-5.39189 1.71748 -1.66677 -4.14478 1.57205 -1.46068 -3.06318 1.23788 -1.24292 
-2.2401 0.712765 -0.907017 -1.68127 0.0864749 -0.468719 -1.35501 -0.550202 -0.0298655 
-10.1341 1.52888 -1.89367 -9.77668 2.30034 -1.55769 -9.46679 3.01273 -1.10396 
-9.24676 3.69831 -0.574859 -9.19319 4.36012 -0.0389629 -9.26328 4.95349 0.482032 
-9.38721 5.42766 1.00676 -9.61253 5.74583 1.58893 -9.93772 5.90535 2.24185 
-24.5055 -14.1038 -5.01075 -23.7185 -13.6733 -4.9915 -22.867 -13.1214 -5.00236 
-21.9822 -12.5005 -4.99355 -20.9063 -11.6759 -4.81273 -19.5033 -10.4838 -4.41678 
-17.97 -9.15685 -3.97526 -16.5502 -8.12512 -3.65108 -15.2012 -7.50436 -3.45397 
-25.0275 -13.4838 -4.80674 -24.8159 -12.5185 -4.51409 -24.5344 -11.329 -4.17767 
-24.1367 -9.92709 -3.80754 -23.5809 -8.58099 -3.37208 -22.9607 -7.39109 -2.87292 
-22.3717 -6.21221 -2.36691 -21.8049 -5.07372 -1.89305 -21.2672 -4.13121 -1.4314 
-25.7424 -16.1592 -5.21134 -26.1816 -18.2783 -5.41992 -26.3815 -20.4018 -5.75436 
-26.3029 -22.2275 -6.1773 -25.9059 -23.8273 -6.45977 -25.375 -25.2347 -6.47747 
-25.0125 -26.183 -6.27469 -24.763 -26.552 -5.91632 -24.4153 -26.4614 -5.48179 
-26.059 -15.5611 -5.09803 -26.8359 -16.7564 -5.10299 -27.4429 -17.9184 -5.04721 
-27.9943 -18.9231 -4.97483 -28.5389 -19.6112 -4.8737 -28.9628 -19.9965 -4.71155 
-29.1889 -20.1703 -4.40212 -29.283 -20.1475 -3.86634 -29.3298 -19.9756 -3.22716 
-10.2353 -2.77882 3.90373 -11.4554 -3.51296 3.66824 -12.924 -4.34504 3.38563 
-14.7062 -5.31305 2.95837 -16.6882 -6.56724 2.38817 -18.6802 -8.19153 1.77408 
-20.5503 -10.0695 1.07279 -22.1593 -12.0803 0.337732 -23.3995 -14.1205 -0.198772 
-9.16278 -2.67356 3.72229 -9.19826 -3.31628 3.33774 -9.37878 -4.04297 2.93552 
-9.73945 -4.75009 2.48366 -10.2861 -5.39651 1.98942 -10.999 -6.05234 1.50094 
-11.8252 -6.71143 1.02894 -12.73 -7.29582 0.577211 -13.6668 -7.82401 0.160416 
-9.85278 -2.00519 4.31202 -10.6561 -1.89411 4.45814 -11.7557 -1.78417 4.44395 
-13.1418 -1.73922 4.33736 -14.6124 -1.8723 4.24326 -16.1241 -2.22517 4.1515 
-17.6738 -2.66584 4.02204 -19.0208 -3.01671 3.82589 -20.0177 -3.27561 3.51153 
-8.18191 -1.82612 3.94814 -7.15051 -1.54966 3.73255 -6.12924 -1.32022 3.45187 
-5.09066 -1.15292 3.13261 -4.06342 -1.03 2.77901 -3.1368 -0.963686 2.40213 
-2.31128 -1.00139 1.97921 -1.62709 -1.09923 1.4688 -1.25548 -1.15725 0.903865 
-8.62806 -1.3217 4.29601 -8.1299 -0.296892 4.43755 -7.78978 0.900971 4.57166 
-7.69237 2.11574 4.65892 -7.86507 3.24296 4.55528 -8.20725 4.25671 4.34283 
-8.60936 5.09975 4.16276 -9.10265 5.67656 3.89527 -9.69153 5.93373 3.43664 
-23.6446 -15.5184 -0.466211 -22.8958 -14.8826 -0.407131 -22.1369 -14.132 -0.411416 
-21.3307 -13.2391 -0.450382 -20.2909 -12.2098 -0.353255 -19.0548 -11.1826 -0.160467 
-17.8691 -10.3124 -0.071895 -16.7837 -9.59224 -0.0937191 -15.683 -8.9476 -0.140799 
-24.3054 -15.2996 -0.268419 -24.2013 -14.2824 0.0141005 -23.992 -12.8843 0.289076 
-23.6359 -11.275 0.585102 -23.1101 -9.73932 1.02264 -22.5506 -8.34353 1.56352 
-22.0502 -7.02863 2.07599 -21.5803 -5.77446 2.52081 -21.152 -4.59886 2.87138 
-24.5682 -17.6611 -0.678761 -24.7194 -19.4545 -0.931139 -24.7683 -21.267 -1.29928 
-24.7009 -22.8087 -1.74845 -24.5258 -24.0336 -2.25178 -24.3292 -25.0864 -2.82041 
-24.1152 -25.8556 -3.43191 -23.9074 -26.2101 -4.05338 -23.8595 -26.2507 -4.62017 
-25.0103 -17.4844 -0.538184 -25.6751 -18.9159 -0.612013 -26.3329 -20.2053 -0.831841 
-27.0149 -21.2428 -1.17146 -27.6625 -21.9747 -1.48628 -28.237 -22.3529 -1.77845 
-28.7194 -22.29 -2.08834 -29.0537 -21.7452 -2.33315 -29.237 -20.8217 -2.50224 
-13.7261 -7.40277 -3.14772 -13.6971 -7.64066 -2.94025 -13.7306 -7.90788 -2.77075 
-13.7662 -8.23431 -2.53793 -13.8087 -8.50467 -2.11562 -13.8905 -8.60884 -1.64122 
-14.0058 -8.58178 -1.26664 -14.1631 -8.4986 -0.921382 -14.3593 -8.41815 -0.555461 
-15.8868 -8.32117 -3.37106 -17.714 -10.16 -3.69394 -19.0313 -12.4104 -4.12836 
-20.0973 -14.5965 -4.38846 -21.2515 -16.5934 -4.43828 -22.3557 -18.6352 -4.48216 
-23.1684 -20.8204 -4.63965 -23.6755 -22.9453 -4.86075 -23.9261 -24.7259 -5.0263 
-11.6333 -6.56509 -3.42658 -9.52398 -6.18221 -3.58555 -7.90968 -5.82745 -3.49118 
-6.69943 -5.31752 -2.97886 -5.48653 -4.60894 -2.33866 -4.27292 -3.85102 -1.84286 
-3.28274 -3.13761 -1.35342 -2.46142 -2.44106 -0.759215 -1.74863 -1.77352 -0.166354 
-16.1037 -9.42313 -0.576273 -17.6106 -10.7986 -1.04775 -18.906 -12.5744 -1.54659 
-19.9548 -14.71 -1.94142 -20.938 -16.8767 -2.29672 -21.9043 -18.8612 -2.78847 
-22.6476 -20.8338 -3.42729 -23.1467 -22.8392 -4.07084 -23.5816 -24.6302 -4.60778 
-12.784 -7.55362 -0.134723 -10.82 -6.97882 -0.0278927 -8.79994 -6.70439 0.176521 
-6.89031 -6.44943 0.392149 -5.24274 -5.90102 0.484752 -3.936 -5.11817 0.489309 
-2.94528 -4.2353 0.478984 -2.18852 -3.23403 0.450218 -1.62147 -2.16886 0.405656 
-21.0388 -3.30893 -0.638263 -21.3022 -3.17871 -0.305375 -21.5553 -3.00479 0.0200068 
-21.7539 -2.82252 0.44293 -21.8521 -2.71126 1.0462 -21.7988 -2.76184 1.66859 
-21.5954 -2.9128 2.13668 -21.3192 -3.05613 2.50315 -21.0437 -3.24902 2.83443 
-21.9347 -4.47393 -1.26814 -23.1896 -5.78941 -1.6265 -24.5146 -7.29629 -1.9778 
-25.81 -8.92996 -2.23292 -27.0078 -10.6486 -2.39044 -28.1003 -12.3257 -2.53263 
-28.9504 -13.9136 -2.64097 -29.3726 -15.6357 -2.65785 -29.4285 -17.6411 -2.6462 
-19.8279 -2.33959 -0.481469 -18.8042 -1.1734 -0.00337875 -17.8046 0.13618 0.403315 
-16.8544 1.43867 0.757224 -15.773 2.53825 1.15444 -14.4947 3.46224 1.58686 
-13.3027 4.3136 1.97322 -12.3228 5.04193 2.30927 -11.3439 5.57741 2.61866 
-21.8163 -4.62895 2.48183 -23.0339 -6.01004 1.78368 -24.3344 -7.67939 1.01292 
-25.6596 -9.54156 0.273412 -27.0158 -11.407 -0.282506 -28.1682 -13.0965 -0.734954 
-28.8663 -14.7073 -1.25724 -29.1964 -16.4084 -1.78366 -29.3318 -18.1334 -2.23401 
-19.9856 -2.42181 3.48389 -19.0657 -1.2522 3.80494 -18.0002 0.00245344 4.05881 
-16.8496 1.3424 4.28364 -15.6373 2.62639 4.43642 -14.366 3.69113 4.39668 
-13.1759 4.52388 4.14214 -12.1632 5.17398 3.76829 -11.2212 5.63621 3.34571 
-24.2887 -27.4214 -5.18973 -24.6958 -28.5792 -5.25757 -25.5195 -29.3087 -5.27145 
-26.809 -29.4659 -5.24222 -28.0068 -29.0415 -5.11836 -28.6033 -28.0196 -4.83252 
-28.8187 -26.3968 -4.3444 -29.0131 -24.3185 -3.71927 -29.2072 -22.0157 -3.1299 
-1.07623 -0.144482 0.639311 -1.29276 1.01759 0.960599 -1.92617 2.28168 1.29133 
-2.77809 3.44601 1.57398 -3.73985 4.36602 1.80979 -4.8451 5.15815 2.03634 
-6.07019 5.82597 2.26431 -7.41712 6.16029 2.49833 -8.86988 6.13869 2.72208 
-11.34 -0.539327 -2.68246 -11.2492 -1.14346 -3.05244 -12.5076 -1.36463 -2.92609 
-11.2993 -1.89074 -3.41614 -12.5696 -2.13297 -3.2158 -13.9181 -2.45706 -3.02295 
-11.5245 -2.7693 -3.70551 -12.8497 -3.07297 -3.46249 -14.1689 -3.47286 -3.1577 
-15.7182 -4.00349 -3.06983 -11.8487 -3.79454 -3.85065 -13.2576 -3.98916 -3.67757 
-14.6388 -4.4458 -3.31009 -16.2093 -5.12193 -3.19493 -17.9438 -5.876 -3.37838 
-12.3016 -4.88604 -3.82145 -13.7373 -4.94191 -3.78714 -15.2703 -5.31095 -3.54811 
-16.9157 -6.10516 -3.42916 -18.6377 -7.0762 -3.65391 -20.2035 -7.93364 -3.9252 
-13.0432 -5.83666 -3.67632 -14.4646 -5.99582 -3.73924 -16.092 -6.4546 -3.76774 
-17.8434 -7.31742 -3.81011 -19.4709 -8.38541 -4.03022 -20.8694 -9.33822 -4.30439 
-22.004 -10.0831 -4.4281 -14.0754 -6.64972 -3.52863 -15.4859 -7.05353 -3.64707 
-17.0676 -7.84062 -3.8842 -18.7976 -8.94119 -4.18417 -20.3312 -10.0366 -4.4754 
-21.5136 -10.9129 -4.6835 -22.493 -11.5945 -4.76887 -23.3566 -12.1535 -4.77736 
-9.10542 0.59772 -2.41518 -7.7234 0.852072 -2.33293 -8.81809 -0.0770276 -2.73535 
-6.32308 0.923479 -2.1412 -7.42808 0.0381372 -2.6178 -8.60052 -0.837177 -3.05583 
-5.02429 0.808541 -1.89839 -6.12275 -0.0561053 -2.3971 -7.25459 -0.918852 -2.87369 
-8.52437 -1.71228 -3.30557 -3.85378 0.50129 -1.67628 -4.92784 -0.337609 -2.15274 
-6.06979 -1.22463 -2.65136 -7.22653 -1.99676 -3.11584 -8.68587 -2.80083 -3.51165 
-2.9199 -0.00709831 -1.40383 -3.87433 -0.805416 -1.90474 -5.01014 -1.66758 -2.41112 
-6.1767 -2.47298 -2.93378 -7.47127 -3.1992 -3.41588 -9.10717 -4.04866 -3.71341 
-2.30174 -0.610974 -1.01639 -3.1243 -1.38502 -1.5784 -4.14294 -2.19119 -2.09909 
-5.34624 -2.99166 -2.62455 -6.59907 -3.72055 -3.23161 -7.99097 -4.43112 -3.70126 
-9.72493 -5.16212 -3.81239 -1.93037 -1.20131 -0.580317 -2.69475 -1.93399 -1.17766 
-3.58649 -2.6927 -1.73116 -4.71882 -3.45847 -2.20938 -5.99898 -4.21749 -2.80033 
-7.2296 -4.89149 -3.45377 -8.65604 -5.46514 -3.77871 -10.5465 -5.96647 -3.69749 
-2.19341 -2.83249 -0.166359 -2.81569 -3.94307 -0.158521 -2.97683 -3.5172 -0.814577 
-3.60329 -5.02562 -0.104553 -3.62071 -4.67613 -0.822863 -3.87495 -4.21985 -1.4277 
-4.65145 -5.98604 -0.00749572 -4.39708 -5.84318 -0.724841 -4.53404 -5.42393 -1.46504 
-4.96454 -4.97315 -1.96189 -6.17059 -6.62129 -0.00103771 -5.59412 -6.70821 -0.585645 
[...]
POINT_DATA 1002
FIELD FieldData 4
_paraPhi 1 1002 double
6.2831853072 3.1415926536 6.2831853072 3.1415926536 4.7123889804 4.7123889804 1.5707963268 1.5707963268 3.6951670125 
5.7296109483 2.5880182947 0.5535743589 6.2831853072 6.2831853072 6.2831853072 6.2831853072 3.1415926536 3.1415926536 
3.1415926536 3.1415926536 3.1415926536 6.1053039672 5.898798347 5.6768734901 5.4599499503 5.2659633393 5.1032165617 
4.9713148346 4.8656852733 4.7809517865 0.17788134 0.38438696014 0.60631181711 0.82323535693 1.0172219679 1.1799687454 
1.3118704726 1.4175000338 1.5022335207 6.1892828907 6.1070320098 6.035312792 5.9728339911 5.9183214791 5.8706119594 
5.8286879411 5.7916808611 5.7588591896 0.093902416448 0.17615329733 0.2478725152 0.31035131605 0.36486382811 0.41257334776 
0.45449736604 0.4915044461 0.52432611754 3.3194739936 3.5259796137 3.7479044707 3.9648280105 4.1588146215 4.321561399 
4.4534631262 4.5590926874 4.6438261743 2.9637113136 2.7572056934 2.5352808365 2.3183572967 2.1243706857 1.9616239082 
1.829722181 1.7240926197 1.6393591329 3.23549507 3.3177459509 3.3894651688 3.4519439696 3.5064564817 3.5541660013 
3.5960900196 3.6330970997 3.6659187711 3.0476902371 2.9654393563 2.8937201384 2.8312413375 2.7767288255 2.7290193058 
2.6870952876 2.6500882075 2.617266536 6.2831853072 6.2831853072 6.2831853072 6.2831853072 3.1415926536 3.1415926536 
3.1415926536 3.1415926536 3.1415926536 6.1053039672 5.898798347 5.6768734901 5.4599499503 5.2659633393 5.1032165617 
4.9713148346 4.8656852733 4.7809517865 0.17788134 0.38438696014 0.60631181711 0.82323535693 1.0172219679 1.1799687454 
1.3118704726 1.4175000338 1.5022335207 6.1892828907 6.1070320098 6.035312792 5.9728339911 5.9183214791 5.8706119594 
5.8286879411 5.7916808611 5.7588591896 0.093902416448 0.17615329733 0.2478725152 0.31035131605 0.36486382811 0.41257334776 
0.45449736604 0.4915044461 0.52432611754 3.3194739936 3.5259796137 3.7479044707 3.9648280105 4.1588146215 4.321561399 
4.4534631262 4.5590926874 4.6438261743 2.9637113136 2.7572056934 2.5352808365 2.3183572967 2.1243706857 1.9616239082 
1.829722181 1.7240926197 1.6393591329 3.23549507 3.3177459509 3.3894651688 3.4519439696 3.5064564817 3.5541660013 
3.5960900196 3.6330970997 3.6659187711 3.0476902371 2.9654393563 2.8937201384 2.8312413375 2.7767288255 2.7290193058 
2.6870952876 2.6500882075 2.617266536 4.7123889804 4.7123889804 4.7123889804 4.7123889804 4.7123889804 4.7123889804 
4.7123889804 4.7123889804 4.7123889804 4.6087898617 4.4991390697 4.3857031936 4.2712800401 4.1588146215 4.0509635631 
3.94975894 3.8564636551 3.7716124825 4.8159880991 4.9256388911 5.0390747672 5.1534979207 5.2659633393 5.3738143976 
5.4750190208 5.5683143056 5.6531654782 4.6087898617 4.4991390697 4.3857031936 4.2712800401 4.1588146215 4.0509635631 
3.94975894 3.8564636551 3.7716124825 4.8159880991 4.9256388911 5.0390747672 5.1534979207 5.2659633393 5.3738143976 
5.4750190208 5.5683143056 5.6531654782 1.5707963268 1.5707963268 1.5707963268 1.5707963268 1.5707963268 1.5707963268 
1.5707963268 1.5707963268 1.5707963268 1.6743954455 1.7840462375 1.8974821136 2.0119052671 2.1243706857 2.232221744 
2.3334263672 2.426721652 2.5115728246 1.4671972081 1.3575464161 1.24411054 1.1296873865 1.0172219679 0.90937090954 
0.80816628637 0.71487100155 0.63001982895 1.6743954455 1.7840462375 1.8974821136 2.0119052671 2.1243706857 2.232221744 
2.3334263672 2.426721652 2.5115728246 1.4671972081 1.3575464161 1.24411054 1.1296873865 1.0172219679 0.90937090954 
0.80816628637 0.71487100155 0.63001982895 3.6007720849 3.4966939854 3.3839471039 3.2645756454 3.1415926536 3.0186096618 
2.8992382033 2.7864913217 2.6824132222 5.8240058758 5.9280839753 6.0408308569 6.1602023154 6.2831853072 0.12298299178 
0.2423544503 0.35510133185 0.45917943135 6.0560271438 5.7885595667 5.9702140275 5.5125918794 5.6029703303 5.7885595667 
5.2659633393 5.2659633393 5.2659633393 5.2659633393 5.0674903122 5.0120975802 4.9155579264 4.7123889804 4.1588146215 
4.9155579264 4.8353719722 4.7123889804 4.5092200343 4.1588146215 3.6362183941 4.8004512023 4.7123889804 4.5894059886 
4.4126803806 4.1588146215 3.8218076305 3.4545639333 4.7123889804 4.6243267584 4.5092200343 4.3572876485 4.1588146215 
3.9121860814 3.6362183941 3.368750817 6.0174235957 5.9434319871 5.8263323547 5.8809213739 5.7674481418 5.6279784266 
5.8278025282 5.718968232 5.5891129425 5.4372443565 5.7823484065 5.678536687 5.5575666702 5.4192596322 5.2659633393 
5.743164462 5.6444075337 5.5314983644 5.4046708639 5.2659633393 5.1195510325 5.7091357773 5.6152775188 5.5096229709 
5.3926039573 5.2659633393 5.1329233157 4.9978930058 5.6793730533 5.5901633916 5.4910209005 5.3824597928 5.2659633393 
5.1440684722 5.0201624502 4.8979782167 5.5683143056 5.4750190208 5.4750190208 5.3738143976 5.3738143976 5.3738143976 
5.2659633393 5.2659633393 5.2659633393 5.2659633393 5.1534979207 5.1534979207 5.1534979207 5.1534979207 5.1534979207 
5.0390747672 5.0390747672 5.0390747672 5.0390747672 5.0390747672 5.0390747672 4.9256388911 4.9256388911 4.9256388911 
4.9256388911 4.9256388911 4.9256388911 4.9256388911 4.8159880991 4.8159880991 4.8159880991 4.8159880991 4.8159880991 
4.8159880991 4.8159880991 4.8159880991 4.6087898617 4.6087898617 4.4991390697 4.6087898617 4.4991390697 4.3857031936 
4.6087898617 4.4991390697 4.3857031936 4.2712800401 4.6087898617 4.4991390697 4.3857031936 4.2712800401 4.1588146215 
4.6087898617 4.4991390697 4.3857031936 4.2712800401 4.1588146215 4.0509635631 4.6087898617 4.4991390697 4.3857031936 
4.2712800401 4.1588146215 4.0509635631 3.94975894 4.6087898617 4.4991390697 4.3857031936 4.2712800401 4.1588146215 
4.0509635631 3.94975894 3.8564636551 4.526799744 4.4046155105 4.426884955 4.2807094886 4.2918546451 4.3052269283 
4.1588146215 4.1588146215 4.1588146215 4.1588146215 4.042318168 4.0321740035 4.0201070968 4.0055183285 3.9875336042 
3.9337570603 3.9151549899 3.8932795963 3.8672112905 3.8356650183 3.7967995342 3.8346145692 3.809500442 3.7803704271 
3.7462412737 3.7058097288 3.657329819 3.5984456061 3.7454049075 3.7156421835 3.6816134988 3.6424295543 3.5969754326 
3.5438565869 3.4813459737 3.4073543651 3.5642842451 3.4524645613 3.5233842518 3.3320300872 3.403123212 3.4773852225 
3.20576226 3.2746326772 3.348015857 3.4255060145 3.0774230472 3.1415926536 3.2112816139 3.2864685043 3.3668817272 
2.95115522 3.00855263 3.0719036933 3.1415926536 3.2178377658 3.3005964304 2.8307207459 2.8800620952 2.9351694502 
2.9967168029 3.0653475414 3.1415926536 3.225752376 2.718901062 2.7598010554 2.8058000847 2.8576792927 2.91630358 
2.9825888767 3.0574329311 3.1415926536 3.5642842451 3.5233842518 3.4524645613 3.4773852225 3.403123212 3.3320300872 
3.4255060145 3.348015857 3.2746326772 3.20576226 3.3668817272 3.2864685043 3.2112816139 3.1415926536 3.0774230472 
3.3005964304 3.2178377658 3.1415926536 3.0719036933 3.00855263 2.95115522 3.225752376 3.1415926536 3.0653475414 
2.9967168029 2.9351694502 2.8800620952 2.8307207459 3.1415926536 3.0574329311 2.9825888767 2.91630358 2.8576792927 
2.8058000847 2.7598010554 2.718901062 4.526799744 4.426884955 4.4046155105 4.3052269283 4.2918546451 4.2807094886 
4.1588146215 4.1588146215 4.1588146215 4.1588146215 3.9875336042 4.0055183285 4.0201070968 4.0321740035 4.042318168 
3.7967995342 3.8356650183 3.8672112905 3.8932795963 3.9151549899 3.9337570603 3.5984456061 3.657329819 3.7058097288 
3.7462412737 3.7803704271 3.809500442 3.8346145692 3.4073543651 3.4813459737 3.5438565869 3.5969754326 3.6424295543 
3.6816134988 3.7156421835 3.7454049075 4.7123889804 4.8004512023 4.6243267584 4.9155579264 4.7123889804 4.5092200343 
5.0674903122 4.8353719722 4.5894059886 4.3572876485 5.2659633393 5.0120975802 4.7123889804 4.4126803806 4.1588146215 
5.5125918794 5.2659633393 4.9155579264 4.5092200343 4.1588146215 3.9121860814 5.7885595667 5.6029703303 5.2659633393 
4.7123889804 4.1588146215 3.8218076305 3.6362183941 6.0560271438 5.9702140275 5.7885595667 5.2659633393 4.1588146215 
3.6362183941 3.4545639333 3.368750817 0.22715816343 0.49462574053 0.3129712797 0.77059342779 0.68021497688 0.49462574053 
1.0172219679 1.0172219679 1.0172219679 1.0172219679 1.2156949949 1.271087727 1.3676273807 1.5707963268 2.1243706857 
1.3676273807 1.447813335 1.5707963268 1.7739652728 2.1243706857 2.6469669131 1.4827341049 1.5707963268 1.6937793186 
1.8705049266 2.1243706857 2.4613776767 2.8286213739 1.5707963268 1.6588585487 1.7739652728 1.9258976586 2.1243706857 
2.3709992258 2.6469669131 2.9144344902 1.7563855631 1.8785697967 1.8563003522 2.0024758186 1.9913306621 1.9779583789 
2.1243706857 2.1243706857 2.1243706857 2.1243706857 2.2408671392 2.2510113037 2.2630782103 2.2776669786 2.295651703 
2.3494282469 2.3680303173 2.3899057108 2.4159740166 2.4475202889 2.486385773 2.448570738 2.4736848652 2.5028148801 
2.5369440334 2.5773755784 2.6258554882 2.6847397011 2.5377803997 2.5675431237 2.6015718084 2.6407557529 2.6862098746 
2.7393287203 2.8018393335 2.8758309421 1.6743954455 1.6743954455 1.7840462375 1.6743954455 1.7840462375 1.8974821136 
1.6743954455 1.7840462375 1.8974821136 2.0119052671 1.6743954455 1.7840462375 1.8974821136 2.0119052671 2.1243706857 
1.6743954455 1.7840462375 1.8974821136 2.0119052671 2.1243706857 2.232221744 1.6743954455 1.7840462375 1.8974821136 
2.0119052671 2.1243706857 2.232221744 2.3334263672 1.6743954455 1.7840462375 1.8974821136 2.0119052671 2.1243706857 
2.232221744 2.3334263672 2.426721652 1.4671972081 1.3575464161 1.4671972081 1.24411054 1.3575464161 1.4671972081 
1.1296873865 1.24411054 1.3575464161 1.4671972081 1.0172219679 1.1296873865 1.24411054 1.3575464161 1.4671972081 
0.90937090954 1.0172219679 1.1296873865 1.24411054 1.3575464161 1.4671972081 0.80816628637 0.90937090954 1.0172219679 
1.1296873865 1.24411054 1.3575464161 1.4671972081 0.71487100155 0.80816628637 0.90937090954 1.0172219679 1.1296873865 
1.24411054 1.3575464161 1.4671972081 0.60381225391 0.57404952988 0.69302191562 0.54002084522 0.66790778838 0.79216440667 
0.50083690068 0.63877777351 0.77356233629 0.90072551443 0.45538277901 0.60464862014 0.75168694275 0.89058134991 1.0172219679 
0.40226393329 0.56421707518 0.72561863695 0.87851444325 1.0172219679 1.139116835 0.33975332011 0.51573716537 0.69407236469 
0.86392567495 1.0172219679 1.1502619915 1.2630228569 0.26576171152 0.45685295248 0.6552068806 0.84594095064 1.0172219679 
1.1636342747 1.2852923014 1.3852070904 0.22715816343 0.3129712797 0.49462574053 0.49462574053 0.68021497688 0.77059342779 
1.0172219679 1.0172219679 1.0172219679 1.0172219679 2.1243706857 1.5707963268 1.3676273807 1.271087727 1.2156949949 
2.6469669131 2.1243706857 1.7739652728 1.5707963268 1.447813335 1.3676273807 2.8286213739 2.4613776767 2.1243706857 
1.8705049266 1.6937793186 1.5707963268 1.4827341049 2.9144344902 2.6469669131 2.3709992258 2.1243706857 1.9258976586 
1.7739652728 1.6588585487 1.5707963268 1.7563855631 1.8563003522 1.8785697967 1.9779583789 1.9913306621 2.0024758186 
2.1243706857 2.1243706857 2.1243706857 2.1243706857 2.295651703 2.2776669786 2.2630782103 2.2510113037 2.2408671392 
2.486385773 2.4475202889 2.4159740166 2.3899057108 2.3680303173 2.3494282469 2.6847397011 2.6258554882 2.5773755784 
2.5369440334 2.5028148801 2.4736848652 2.448570738 2.8758309421 2.8018393335 2.7393287203 2.6862098746 2.6407557529 
2.6015718084 2.5675431237 2.5377803997 5.8604937156 5.901393709 5.9723133995 5.9473927383 6.0216547488 6.0927478736 
5.9992719463 6.0767621038 6.1501452836 6.2190157008 6.0578962336 6.1383094565 6.2134963469 0 0.064169606361 
6.1241815303 6.206940195 6.2831853072 0.069688960264 0.13304002361 0.19043743361 6.1990255847 0 0.07624511221 
0.14487585072 0.20642320337 0.26153055843 0.3108719077 0 0.084159722458 0.15900377685 0.22528907359 0.28391336087 
0.3357925689 0.38179159818 0.42269159155 5.8604937156 5.9723133995 5.901393709 6.0927478736 6.0216547488 5.9473927383 
6.2190157008 6.1501452836 6.0767621038 5.9992719463 0.064169606361 0 6.2134963469 6.1383094565 6.0578962336 
0.19043743361 0.13304002361 0.069688960264 6.2831853072 6.206940195 6.1241815303 0.3108719077 0.26153055843 0.20642320337 
0.14487585072 0.07624511221 6.2831853072 6.1990255847 0.42269159155 0.38179159818 0.3357925689 0.28391336087 0.22528907359 
0.15900377685 0.084159722458 0 5.6793730533 5.7091357773 5.5901633916 5.743164462 5.6152775188 5.4910209005 
5.7823484065 5.6444075337 5.5096229709 5.3824597928 5.8278025282 5.678536687 5.5314983644 5.3926039573 5.2659633393 
5.8809213739 5.718968232 5.5575666702 5.4046708639 5.2659633393 5.1440684722 5.9434319871 5.7674481418 5.5891129425 
5.4192596322 5.2659633393 5.1329233157 5.0201624502 6.0174235957 5.8263323547 5.6279784266 5.4372443565 5.2659633393 
5.1195510325 4.9978930058 4.8979782167 1.3852070904 1.2852923014 1.2630228569 1.1636342747 1.1502619915 1.139116835 
1.0172219679 1.0172219679 1.0172219679 1.0172219679 0.84594095064 0.86392567495 0.87851444325 0.89058134991 0.90072551443 
0.6552068806 0.69407236469 0.72561863695 0.75168694275 0.77356233629 0.79216440667 0.45685295248 0.51573716537 0.56421707518 
0.60464862014 0.63877777351 0.66790778838 0.69302191562 0.26576171152 0.33975332011 0.40226393329 0.45538277901 0.50083690068 
0.54002084522 0.57404952988 0.60381225391 
_paraPhiHalf 1 1002 double
0 3.1415926536 0 3.1415926536 1.5707963268 1.5707963268 1.5707963268 1.5707963268 2.5880182947 
0.5535743589 2.5880182947 0.5535743589 0 0 0 0 3.1415926536 3.1415926536 
3.1415926536 3.1415926536 3.1415926536 0.17788134 0.38438696014 0.60631181711 0.82323535693 1.0172219679 1.1799687454 
1.3118704726 1.4175000338 1.5022335207 0.17788134 0.38438696014 0.60631181711 0.82323535693 1.0172219679 1.1799687454 
1.3118704726 1.4175000338 1.5022335207 0.093902416448 0.17615329733 0.2478725152 0.31035131605 0.36486382811 0.41257334776 
0.45449736604 0.4915044461 0.52432611754 0.093902416448 0.17615329733 0.2478725152 0.31035131605 0.36486382811 0.41257334776 
0.45449736604 0.4915044461 0.52432611754 2.9637113136 2.7572056934 2.5352808365 2.3183572967 2.1243706857 1.9616239082 
1.829722181 1.7240926197 1.6393591329 2.9637113136 2.7572056934 2.5352808365 2.3183572967 2.1243706857 1.9616239082 
1.829722181 1.7240926197 1.6393591329 3.0476902371 2.9654393563 2.8937201384 2.8312413375 2.7767288255 2.7290193058 
2.6870952876 2.6500882075 2.617266536 3.0476902371 2.9654393563 2.8937201384 2.8312413375 2.7767288255 2.7290193058 
2.6870952876 2.6500882075 2.617266536 0 0 0 0 3.1415926536 3.1415926536 
3.1415926536 3.1415926536 3.1415926536 0.17788134 0.38438696014 0.60631181711 0.82323535693 1.0172219679 1.1799687454 
1.3118704726 1.4175000338 1.5022335207 0.17788134 0.38438696014 0.60631181711 0.82323535693 1.0172219679 1.1799687454 
1.3118704726 1.4175000338 1.5022335207 0.093902416448 0.17615329733 0.2478725152 0.31035131605 0.36486382811 0.41257334776 
0.45449736604 0.4915044461 0.52432611754 0.093902416448 0.17615329733 0.2478725152 0.31035131605 0.36486382811 0.41257334776 
0.45449736604 0.4915044461 0.52432611754 2.9637113136 2.7572056934 2.5352808365 2.3183572967 2.1243706857 1.9616239082 
1.829722181 1.7240926197 1.6393591329 2.9637113136 2.7572056934 2.5352808365 2.3183572967 2.1243706857 1.9616239082 
1.829722181 1.7240926197 1.6393591329 3.0476902371 2.9654393563 2.8937201384 2.8312413375 2.7767288255 2.7290193058 
2.6870952876 2.6500882075 2.617266536 3.0476902371 2.9654393563 2.8937201384 2.8312413375 2.7767288255 2.7290193058 
2.6870952876 2.6500882075 2.617266536 1.5707963268 1.5707963268 1.5707963268 1.5707963268 1.5707963268 1.5707963268 
1.5707963268 1.5707963268 1.5707963268 1.6743954455 1.7840462375 1.8974821136 2.0119052671 2.1243706857 2.232221744 
2.3334263672 2.426721652 2.5115728246 1.4671972081 1.3575464161 1.24411054 1.1296873865 1.0172219679 0.90937090954 
0.80816628637 0.71487100155 0.63001982895 1.6743954455 1.7840462375 1.8974821136 2.0119052671 2.1243706857 2.232221744 
2.3334263672 2.426721652 2.5115728246 1.4671972081 1.3575464161 1.24411054 1.1296873865 1.0172219679 0.90937090954 
0.80816628637 0.71487100155 0.63001982895 1.5707963268 1.5707963268 1.5707963268 1.5707963268 1.5707963268 1.5707963268 
1.5707963268 1.5707963268 1.5707963268 1.6743954455 1.7840462375 1.8974821136 2.0119052671 2.1243706857 2.232221744 
2.3334263672 2.426721652 2.5115728246 1.4671972081 1.3575464161 1.24411054 1.1296873865 1.0172219679 0.90937090954 
0.80816628637 0.71487100155 0.63001982895 1.6743954455 1.7840462375 1.8974821136 2.0119052671 2.1243706857 2.232221744 
2.3334263672 2.426721652 2.5115728246 1.4671972081 1.3575464161 1.24411054 1.1296873865 1.0172219679 0.90937090954 
0.80816628637 0.71487100155 0.63001982895 2.6824132222 2.7864913217 2.8992382033 3.0186096618 3.1415926536 3.0186096618 
2.8992382033 2.7864913217 2.6824132222 0.45917943135 0.35510133185 0.2423544503 0.12298299178 0 0.12298299178 
0.2423544503 0.35510133185 0.45917943135 0.22715816343 0.49462574053 0.3129712797 0.77059342779 0.68021497688 0.49462574053 
1.0172219679 1.0172219679 1.0172219679 1.0172219679 1.2156949949 1.271087727 1.3676273807 1.5707963268 2.1243706857 
1.3676273807 1.447813335 1.5707963268 1.7739652728 2.1243706857 2.6469669131 1.4827341049 1.5707963268 1.6937793186 
1.8705049266 2.1243706857 2.4613776767 2.8286213739 1.5707963268 1.6588585487 1.7739652728 1.9258976586 2.1243706857 
2.3709992258 2.6469669131 2.9144344902 0.26576171152 0.33975332011 0.45685295248 0.40226393329 0.51573716537 0.6552068806 
0.45538277901 0.56421707518 0.69407236469 0.84594095064 0.50083690068 0.60464862014 0.72561863695 0.86392567495 1.0172219679 
0.54002084522 0.63877777351 0.75168694275 0.87851444325 1.0172219679 1.1636342747 0.57404952988 0.66790778838 0.77356233629 
0.89058134991 1.0172219679 1.1502619915 1.2852923014 0.60381225391 0.69302191562 0.79216440667 0.90072551443 1.0172219679 
1.139116835 1.2630228569 1.3852070904 0.71487100155 0.80816628637 0.80816628637 0.90937090954 0.90937090954 0.90937090954 
1.0172219679 1.0172219679 1.0172219679 1.0172219679 1.1296873865 1.1296873865 1.1296873865 1.1296873865 1.1296873865 
1.24411054 1.24411054 1.24411054 1.24411054 1.24411054 1.24411054 1.3575464161 1.3575464161 1.3575464161 
1.3575464161 1.3575464161 1.3575464161 1.3575464161 1.4671972081 1.4671972081 1.4671972081 1.4671972081 1.4671972081 
1.4671972081 1.4671972081 1.4671972081 1.6743954455 1.6743954455 1.7840462375 1.6743954455 1.7840462375 1.8974821136 
1.6743954455 1.7840462375 1.8974821136 2.0119052671 1.6743954455 1.7840462375 1.8974821136 2.0119052671 2.1243706857 
1.6743954455 1.7840462375 1.8974821136 2.0119052671 2.1243706857 2.232221744 1.6743954455 1.7840462375 1.8974821136 
2.0119052671 2.1243706857 2.232221744 2.3334263672 1.6743954455 1.7840462375 1.8974821136 2.0119052671 2.1243706857 
2.232221744 2.3334263672 2.426721652 1.7563855631 1.8785697967 1.8563003522 2.0024758186 1.9913306621 1.9779583789 
2.1243706857 2.1243706857 2.1243706857 2.1243706857 2.2408671392 2.2510113037 2.2630782103 2.2776669786 2.295651703 
2.3494282469 2.3680303173 2.3899057108 2.4159740166 2.4475202889 2.486385773 2.448570738 2.4736848652 2.5028148801 
2.5369440334 2.5773755784 2.6258554882 2.6847397011 2.5377803997 2.5675431237 2.6015718084 2.6407557529 2.6862098746 
2.7393287203 2.8018393335 2.8758309421 2.718901062 2.8307207459 2.7598010554 2.95115522 2.8800620952 2.8058000847 
3.0774230472 3.00855263 2.9351694502 2.8576792927 3.0774230472 3.1415926536 3.0719036933 2.9967168029 2.91630358 
2.95115522 3.00855263 3.0719036933 3.1415926536 3.0653475414 2.9825888767 2.8307207459 2.8800620952 2.9351694502 
2.9967168029 3.0653475414 3.1415926536 3.0574329311 2.718901062 2.7598010554 2.8058000847 2.8576792927 2.91630358 
2.9825888767 3.0574329311 3.1415926536 2.718901062 2.7598010554 2.8307207459 2.8058000847 2.8800620952 2.95115522 
2.8576792927 2.9351694502 3.00855263 3.0774230472 2.91630358 2.9967168029 3.0719036933 3.1415926536 3.0774230472 
2.9825888767 3.0653475414 3.1415926536 3.0719036933 3.00855263 2.95115522 3.0574329311 3.1415926536 3.0653475414 