# vtk DataFile Version 5.1
vtk output
ASCII
DATASET POLYDATA
POINTS 1002 float
-10.2088 0.52455 -1.01144 -21.712 -15.3525 -1.07177 -8.13839 -1.80858 4.69448 
-20.0153 -15.7142 3.2037 -11.8158 -6.64937 -1.167 -11.8741 -7.54817 2.04142 
-19.5659 -3.7733 2.078 -19.4891 -4.86832 5.67251 -17.1592 -27.2002 -1.60051 
-0.836168 -0.301204 0.164843 -24.244 -20.7955 1.07269 -9.78095 5.42091 3.38249 
-11.0628 -0.188287 -0.949744 -12.0788 -0.998809 -0.88997 -13.2598 -1.96421 -0.767599 
-14.6366 -3.24684 -0.490089 -16.2561 -4.94608 -0.206976 -17.9914 -6.9259 -0.207308 
-19.5217 -9.04049 -0.454999 -20.6283 -11.2558 -0.705724 -21.3215 -13.4306 -0.892173 
-9.96955 0.049448 -1.26218 -9.72652 -0.509144 -1.50107 -9.53563 -1.08937 -1.74624 
-9.50846 -1.7877 -1.96487 -9.68403 -2.7264 -2.05735 -9.93872 -3.77463 -2.02506 
-10.1802 -4.74993 -1.98179 -10.5109 -5.5839 -1.8903 -11.0605 -6.20988 -1.60957 
-10.9591 0.480598 -0.680131 -11.8076 0.327787 -0.304194 -12.8038 0.0625497 0.0582382 
-13.9114 -0.291032 0.407027 -15.0034 -0.745077 0.776946 -16.0288 -1.31378 1.12849 
-17.0227 -1.93748 1.42616 -17.9684 -2.56152 1.68725 -18.8197 -3.17993 1.90708 
-9.23349 0.941095 -1.22897 -8.15108 1.34441 -1.43012 -6.97315 1.65789 -1.58138 
-5.68729 1.80988 -1.64519 -4.31559 1.78439 -1.63998 -3.05793 1.57658 -1.57282 
-2.11883 1.20138 -1.34143 -1.47712 0.729981 -0.900083 -1.04699 0.222532 -0.358024 
-9.89138 1.19018 -0.86049 -9.6271 1.87729 -0.642144 -9.39633 2.64236 -0.371039 
-9.18898 3.38726 -0.0331105 -9.07438 3.96058 0.438251 -9.07971 4.46562 0.961335 
-9.17971 4.95219 1.42829 -9.37986 5.26736 1.97313 -9.61739 5.39721 2.67917 
-21.3325 -15.2071 -1.11723 -20.8453 -14.827 -1.13081 -20.2594 -14.213 -1.14047 
-19.6626 -13.4064 -1.0878 -18.934 -12.2375 -0.927074 -17.7631 -10.5805 -0.78246 
-16.2227 -8.85259 -0.763753 -14.6743 -7.60623 -0.835741 -13.2224 -6.9386 -0.968788 
-21.861 -14.2478 -0.857254 -21.9469 -13.0365 -0.596526 -21.9258 -11.7564 -0.314616 
-21.7688 -10.3914 -0.0210158 -21.4974 -8.9968 0.308719 -21.1486 -7.71354 0.684304 
-20.7519 -6.57179 1.07107 -20.3381 -5.51448 1.43385 -19.9362 -4.56495 1.76799 
-21.7006 -17.1115 -1.33553 -21.5329 -18.9103 -1.66273 -21.2044 -20.7528 -2.03558 
-20.6934 -22.5893 -2.41034 -20.0118 -24.2318 -2.70009 -19.2549 -25.5996 -2.84047 
-18.5178 -26.7001 -2.84023 -17.8655 -27.3716 -2.65811 -17.3915 -27.4958 -2.22295 
-22.0841 -16.4457 -1.13182 -22.4422 -17.5069 -1.15918 -22.8066 -18.562 -1.16916 
-23.1505 -19.543 -1.15432 -23.3822 -20.3387 -1.01631 -23.5454 -20.9039 -0.72502 
-23.7979 -21.2153 -0.367881 -24.0785 -21.2633 0.0447456 -24.2219 -21.0997 0.542318 
-9.04356 -2.53706 4.82009 -10.1171 -3.33028 4.94179 -11.4289 -4.17398 5.00526 
-13.0008 -5.15523 4.94865 -14.7556 -6.40921 4.78737 -16.52 -7.99594 4.52261 
-18.0272 -9.88717 4.13008 -19.0689 -11.939 3.72087 -19.6746 -13.9285 3.41967 
-8.04471 -2.35966 4.48266 -8.00704 -2.98425 4.25288 -8.06854 -3.66577 3.99794 
-8.23377 -4.35236 3.69884 -8.53829 -5.01041 3.37181 -9.02164 -5.62562 3.05089 
-9.62603 -6.18853 2.74924 -10.2975 -6.69689 2.48069 -11.0534 -7.14544 2.25039 
-8.75412 -1.7253 4.99403 -9.3534 -1.66818 5.34145 -10.0813 -1.62345 5.64671 
-11.1763 -1.61774 5.75102 -12.6239 -1.78102 5.68868 -14.1618 -2.22527 5.66923 
-15.6556 -2.88946 5.72 -17.1138 -3.62726 5.7406 -18.4433 -4.31435 5.72299 
-7.18467 -1.45727 4.42964 -6.20715 -1.12977 4.1002 -5.28742 -0.835004 3.70363 
-4.37434 -0.591193 3.27889 -3.47902 -0.41174 2.82354 -2.68294 -0.312098 2.33627 
-1.9131 -0.288239 1.8507 -1.20874 -0.286644 1.33815 -0.822074 -0.279735 0.760856 
-7.68617 -1.00983 4.73235 -7.2574 -0.0872263 4.75192 -6.92854 0.988617 4.77001 
-6.82947 2.15873 4.76218 -6.98287 3.22283 4.63461 -7.27164 4.07527 4.40496 
-7.70456 4.78528 4.21626 -8.37269 5.30996 4.05405 -9.14498 5.51502 3.77928 
-19.6397 -15.2251 3.11053 -19.2212 -14.5575 3.01803 -18.6916 -13.7186 2.96822 
-18.0311 -12.7093 2.96471 -17.2929 -11.5667 2.95941 -16.4359 -10.4262 2.91996 
-15.3785 -9.41581 2.81466 -14.1973 -8.57984 2.61418 -13.0164 -7.95162 2.34098 
-20.2328 -14.982 3.41953 -20.4403 -14.0556 3.66112 -20.5674 -13.0151 3.94505 
-20.5894 -11.8979 4.25261 -20.5449 -10.691 4.5503 -20.449 -9.48798 4.86388 
-20.289 -8.33446 5.21031 -20.0679 -7.14811 5.49285 -19.796 -5.95487 5.63043 
-20.0108 -17.1934 2.92189 -19.9084 -18.8455 2.57876 -19.6635 -20.6595 2.21733 
-19.2649 -22.3631 1.84839 -18.7932 -23.7973 1.39303 -18.352 -25.1502 0.886801 
-17.9124 -26.3544 0.405461 -17.4641 -27.0866 -0.179328 -17.1746 -27.3178 -0.917681 
-20.4012 -17.0218 3.1261 -20.7951 -18.3277 3.04371 -21.2227 -19.5134 2.96766 
-21.7275 -20.4631 2.84417 -22.2797 -21.1212 2.6149 -22.7833 -21.4643 2.32894 
-23.226 -21.5145 2.04998 -23.6383 -21.3787 1.76257 -23.9886 -21.1439 1.43308 
-11.4364 -6.78664 -0.999197 -11.0908 -6.98082 -0.836763 -10.9568 -7.26365 -0.662782 
-11.0135 -7.53404 -0.367025 -11.0572 -7.69453 0.0752934 -11.0598 -7.76058 0.545115 
-11.1793 -7.75494 0.961648 -11.4261 -7.6897 1.34253 -11.6751 -7.61114 1.70737 
-13.7121 -7.40483 -0.612271 -15.691 -9.04002 -0.353864 -17.1123 -11.7765 -0.463468 
-17.8126 -15.109 -0.727121 -18.1002 -18.2582 -0.98223 -18.1176 -20.8907 -1.20556 
-17.9014 -23.0293 -1.41076 -17.5963 -24.7578 -1.62338 -17.3152 -26.1524 -1.73767 
-9.98334 -6.35561 -1.72476 -8.36552 -6.06592 -2.16646 -6.9651 -5.52866 -2.23549 
-5.70663 -4.7539 -1.96021 -4.57127 -3.90449 -1.59377 -3.54664 -3.1127 -1.30203 
-2.62913 -2.39161 -1.04344 -1.82704 -1.67269 -0.710659 -1.19131 -0.953649 -0.286607 
-13.4685 -8.30535 1.9989 -15.0286 -9.56522 1.86426 -16.2736 -11.4727 1.62421 
-17.1064 -13.9769 1.31555 -17.5513 -16.8332 0.940654 -17.6113 -19.7001 0.508349 
-17.4406 -22.2774 0.0491614 -17.2667 -24.4025 -0.470303 -17.1604 -26.0322 -1.05343 
-10.1523 -7.10128 1.8534 -8.3593 -6.75913 1.67357 -6.66277 -6.3464 1.52125 
-5.1657 -5.80242 1.35535 -3.89615 -5.18874 1.14341 -2.87863 -4.4487 0.929273 
-2.09249 -3.46983 0.755039 -1.46173 -2.34506 0.586153 -1.01063 -1.26208 0.384743 
-19.7871 -3.68373 2.37332 -20.0111 -3.58133 2.72451 -20.1997 -3.47537 3.17283 
-20.317 -3.38804 3.70276 -20.3583 -3.3261 4.25036 -20.3306 -3.37051 4.78891 
-20.2334 -3.63455 5.25083 -20.0632 -4.06375 5.52717 -19.812 -4.50087 5.63282 
-20.5111 -4.86349 2.0327 -21.5032 -6.14947 1.94949 -22.5055 -7.66517 1.81709 
-23.4637 -9.30942 1.66891 -24.27 -10.9984 1.54225 -24.7561 -12.986 1.38954 
-24.8702 -15.4116 1.18712 -24.7569 -17.7802 1.03961 -24.5424 -19.5691 1.019 
-18.7325 -2.68727 2.29301 -17.8002 -1.55744 2.52887 -16.8035 -0.399631 2.73374 
-15.8005 0.762506 2.84049 -14.7858 1.90257 2.89604 -13.6902 2.92619 2.99478 
-12.5679 3.7435 3.12141 -11.5728 4.4065 3.22895 -10.6928 4.98203 3.31711 
-20.4672 -6.00507 5.48943 -21.3442 -7.28682 5.10518 -22.3232 -8.87184 4.6144 
-23.3667 -10.7343 4.19099 -24.2028 -12.639 3.8396 -24.6943 -14.5323 3.41582 
-24.8331 -16.4782 2.8575 -24.6945 -18.2757 2.22099 -24.4611 -19.6964 1.60295 
-18.4816 -3.49417 5.7177 -17.2332 -1.98576 5.73902 -15.9568 -0.399799 5.74735 
-14.8173 1.07665 5.7202 -13.7965 2.2798 5.63626 -12.8585 3.26184 5.39839 
-12.0014 4.08965 4.9646 -11.2139 4.71201 4.4634 -10.4835 5.13337 3.9535 
-17.3385 -28.1952 -1.63378 -18.0244 -28.8075 -1.45521 -19.219 -28.9116 -1.15365 
-20.426 -28.4602 -0.846035 -21.2654 -27.54 -0.543511 -21.9525 -26.3989 -0.200373 
-22.6793 -25.1121 0.173883 -23.3321 -23.6254 0.522628 -23.8474 -22.1255 0.81412 
-0.8852 0.669773 0.320775 -1.29697 1.6936 0.527205 -1.9717 2.70699 0.775618 
-2.7876 3.68609 1.01957 -3.65588 4.57154 1.2499 -4.59793 5.22157 1.54042 
-5.78912 5.61152 1.9618 -7.22551 5.78479 2.47842 -8.62565 5.71045 2.97935 
-10.9035 -0.710959 -1.21512 -10.7798 -1.27511 -1.44805 -12.0247 -1.54965 -1.14427 
-10.7832 -1.92271 -1.64051 -12.0878 -2.20267 -1.30504 -13.3456 -2.63144 -0.910035 
-10.915 -2.78362 -1.78057 -12.2828 -3.02541 -1.40147 -13.594 -3.49078 -0.934889 
-14.9019 -4.15289 -0.496406 -11.0445 -3.74396 -1.8125 -12.4422 -3.89705 -1.47645 
-13.9293 -4.39516 -0.973272 -15.3141 -5.17725 -0.485085 -16.7068 -6.06605 -0.246844 
-11.1834 -4.6172 -1.72895 -12.5597 -4.66257 -1.42683 -14.2771 -5.18444 -1.01826 
-15.8625 -6.14821 -0.58848 -17.2489 -7.23499 -0.364482 -18.5224 -8.22414 -0.387166 
-11.5626 -5.4565 -1.57493 -12.9411 -5.5224 -1.23535 -14.7871 -6.14505 -0.919599 
-16.5718 -7.31368 -0.687434 -17.9146 -8.59395 -0.584224 -19.0227 -9.70675 -0.607906 
-19.9553 -10.5994 -0.683383 -12.2936 -6.25784 -1.32361 -13.7212 -6.57738 -1.02868 
-15.5034 -7.48005 -0.788877 -17.2978 -8.92331 -0.705228 -18.5796 -10.3757 -0.776813 
-19.4529 -11.506 -0.863391 -20.2176 -12.3819 -0.902495 -20.8518 -13.0305 -0.917462 
-8.90122 0.414735 -1.48853 -7.75415 0.74208 -1.70293 -8.58624 -0.224924 -1.74932 
-6.52467 0.948899 -1.81585 -7.41404 -0.0213764 -1.9537 -8.34087 -0.910258 -2.02913 
-5.16685 0.977932 -1.79556 -6.16616 0.0439214 -1.97393 -7.13902 -0.859449 -2.1969 
-8.29777 -1.72879 -2.23123 -3.77965 0.796675 -1.74055 -4.80926 -0.0713087 -1.87964 
-5.87419 -0.965074 -2.15541 -7.03745 -1.81455 -2.35001 -8.52415 -2.77682 -2.24815 
-2.64213 0.42208 -1.62653 -3.54705 -0.39136 -1.79978 -4.6347 -1.24349 -2.03808 
-5.74919 -2.07848 -2.30618 -7.21572 -2.95326 -2.35083 -8.8642 -3.93742 -2.20518 
-1.8927 -0.033296 -1.30899 -2.64328 -0.82103 -1.59773 -3.66177 -1.6255 -1.84424 
-4.70986 -2.45989 -2.11599 -5.95355 -3.28964 -2.3043 -7.58214 -4.1779 -2.33596 
-9.16079 -5.01852 -2.21374 -1.44103 -0.487433 -0.816204 -2.11856 -1.24384 -1.19138 
-3.02939 -2.00024 -1.47488 -4.03573 -2.80047 -1.73698 -5.10711 -3.64299 -2.01823 
-6.43802 -4.48889 -2.26382 -7.96756 -5.27888 -2.33709 -9.48155 -5.84776 -2.09882 
-1.51521 -1.99489 -0.0956766 -1.99497 -3.18495 0.0535566 -2.22659 -2.77077 -0.556915 
-2.57682 -4.35474 0.206857 -2.65671 -4.00453 -0.459193 -3.03722 -3.50004 -0.911834 
-3.43216 -5.25692 0.462643 -3.263 -5.15171 -0.297631 -3.50169 -4.72643 -0.862807 
-4.03262 -4.22707 -1.21788 -4.65789 -5.90744 0.792786 -4.28947 -6.02212 0.055218 
-4.24036 -5.89599 -0.709506 -4.63379 -5.47828 -1.24571 -5.20608 -5.06113 -1.60921 
[...]
POINT_DATA 1002
FIELD FieldData 4
_paraPhi 1 1002 double
6.2831853072 3.1415926536 6.2831853072 3.1415926536 4.7123889804 4.7123889804 1.5707963268 1.5707963268 3.6951670125 
5.7296109483 2.5880182947 0.5535743589 6.2831853072 6.2831853072 6.2831853072 6.2831853072 3.1415926536 3.1415926536 
3.1415926536 3.1415926536 3.1415926536 6.1053039672 5.898798347 5.6768734901 5.4599499503 5.2659633393 5.1032165617 
4.9713148346 4.8656852733 4.7809517865 0.17788134 0.38438696014 0.60631181711 0.82323535693 1.0172219679 1.1799687454 
1.3118704726 1.4175000338 1.5022335207 6.1892828907 6.1070320098 6.035312792 5.9728339911 5.9183214791 5.8706119594 
5.8286879411 5.7916808611 5.7588591896 0.093902416448 0.17615329733 0.2478725152 0.31035131605 0.36486382811 0.41257334776 
0.45449736604 0.4915044461 0.52432611754 3.3194739936 3.5259796137 3.7479044707 3.9648280105 4.1588146215 4.321561399 
4.4534631262 4.5590926874 4.6438261743 2.9637113136 2.7572056934 2.5352808365 2.3183572967 2.1243706857 1.9616239082 
1.829722181 1.7240926197 1.6393591329 3.23549507 3.3177459509 3.3894651688 3.4519439696 3.5064564817 3.5541660013 
3.5960900196 3.6330970997 3.6659187711 3.0476902371 2.9654393563 2.8937201384 2.8312413375 2.7767288255 2.7290193058 
2.6870952876 2.6500882075 2.617266536 6.2831853072 6.2831853072 6.2831853072 6.2831853072 3.1415926536 3.1415926536 
3.1415926536 3.1415926536 3.1415926536 6.1053039672 5.898798347 5.6768734901 5.4599499503 5.2659633393 5.1032165617 
4.9713148346 4.8656852733 4.7809517865 0.17788134 0.38438696014 0.60631181711 0.82323535693 1.0172219679 1.1799687454 
1.3118704726 1.4175000338 1.5022335207 6.1892828907 6.1070320098 6.035312792 5.9728339911 5.9183214791 5.8706119594 
5.8286879411 5.7916808611 5.7588591896 0.093902416448 0.17615329733 0.2478725152 0.31035131605 0.36486382811 0.41257334776 
0.45449736604 0.4915044461 0.52432611754 3.3194739936 3.5259796137 3.7479044707 3.9648280105 4.1588146215 4.321561399 
4.4534631262 4.5590926874 4.6438261743 2.9637113136 2.7572056934 2.5352808365 2.3183572967 2.1243706857 1.9616239082 
1.829722181 1.7240926197 1.6393591329 3.23549507 3.3177459509 3.3894651688 3.4519439696 3.5064564817 3.5541660013 
3.5960900196 3.6330970997 3.6659187711 3.0476902371 2.9654393563 2.8937201384 2.8312413375 2.7767288255 2.7290193058 
2.6870952876 2.6500882075 2.617266536 4.7123889804 4.7123889804 4.7123889804 4.7123889804 4.7123889804 4.7123889804 
4.7123889804 4.7123889804 4.7123889804 4.6087898617 4.4991390697 4.3857031936 4.2712800401 4.1588146215 4.0509635631 
3.94975894 3.8564636551 3.7716124825 4.8159880991 4.9256388911 5.0390747672 5.1534979207 5.2659633393 5.3738143976 
5.4750190208 5.5683143056 5.6531654782 4.6087898617 4.4991390697 4.3857031936 4.2712800401 4.1588146215 4.0509635631 
3.94975894 3.8564636551 3.7716124825 4.8159880991 4.9256388911 5.0390747672 5.1534979207 5.2659633393 5.3738143976 
5.4750190208 5.5683143056 5.6531654782 1.5707963268 1.5707963268 1.5707963268 1.5707963268 1.5707963268 1.5707963268 
1.5707963268 1.5707963268 1.5707963268 1.6743954455 1.7840462375 1.8974821136 2.0119052671 2.1243706857 2.232221744 
2.3334263672 2.426721652 2.5115728246 1.4671972081 1.3575464161 1.24411054 1.1296873865 1.0172219679 0.90937090954 
0.80816628637 0.71487100155 0.63001982895 1.6743954455 1.7840462375 1.8974821136 2.0119052671 2.1243706857 2.232221744 
2.3334263672 2.426721652 2.5115728246 1.4671972081 1.3575464161 1.24411054 1.1296873865 1.0172219679 0.90937090954 
0.80816628637 0.71487100155 0.63001982895 3.6007720849 3.4966939854 3.3839471039 3.2645756454 3.1415926536 3.0186096618 
2.8992382033 2.7864913217 2.6824132222 5.8240058758 5.9280839753 6.0408308569 6.1602023154 6.2831853072 0.12298299178 
0.2423544503 0.35510133185 0.45917943135 6.0560271438 5.7885595667 5.9702140275 5.5125918794 5.6029703303 5.7885595667 
5.2659633393 5.2659633393 5.2659633393 5.2659633393 5.0674903122 5.0120975802 4.9155579264 4.7123889804 4.1588146215 
4.9155579264 4.8353719722 4.7123889804 4.5092200343 4.1588146215 3.6362183941 4.8004512023 4.7123889804 4.5894059886 
4.4126803806 4.1588146215 3.8218076305 3.4545639333 4.7123889804 4.6243267584 4.5092200343 4.3572876485 4.1588146215 
3.9121860814 3.6362183941 3.368750817 6.0174235957 5.9434319871 5.8263323547 5.8809213739 5.7674481418 5.6279784266 
5.8278025282 5.718968232 5.5891129425 5.4372443565 5.7823484065 5.678536687 5.5575666702 5.4192596322 5.2659633393 
5.743164462 5.6444075337 5.5314983644 5.4046708639 5.2659633393 5.1195510325 5.7091357773 5.6152775188 5.5096229709 
5.3926039573 5.2659633393 5.1329233157 4.9978930058 5.6793730533 5.5901633916 5.4910209005 5.3824597928 5.2659633393 
5.1440684722 5.0201624502 4.8979782167 5.5683143056 5.4750190208 5.4750190208 5.3738143976 5.3738143976 5.3738143976 
5.2659633393 5.2659633393 5.2659633393 5.2659633393 5.1534979207 5.1534979207 5.1534979207 5.1534979207 5.1534979207 
5.0390747672 5.0390747672 5.0390747672 5.0390747672 5.0390747672 5.0390747672 4.9256388911 4.9256388911 4.9256388911 
4.9256388911 4.9256388911 4.9256388911 4.9256388911 4.8159880991 4.8159880991 4.8159880991 4.8159880991 4.8159880991 
4.8159880991 4.8159880991 4.8159880991 4.6087898617 4.6087898617 4.4991390697 4.6087898617 4.4991390697 4.3857031936 
4.6087898617 4.4991390697 4.3857031936 4.2712800401 4.6087898617 4.4991390697 4.3857031936 4.2712800401 4.1588146215 
4.6087898617 4.4991390697 4.3857031936 4.2712800401 4.1588146215 4.0509635631 4.6087898617 4.4991390697 4.3857031936 
4.2712800401 4.1588146215 4.0509635631 3.94975894 4.6087898617 4.4991390697 4.3857031936 4.2712800401 4.1588146215 
4.0509635631 3.94975894 3.8564636551 4.526799744 4.4046155105 4.426884955 4.2807094886 4.2918546451 4.3052269283 
4.1588146215 4.1588146215 4.1588146215 4.1588146215 4.042318168 4.0321740035 4.0201070968 4.0055183285 3.9875336042 
3.9337570603 3.9151549899 3.8932795963 3.8672112905 3.8356650183 3.7967995342 3.8346145692 3.809500442 3.7803704271 
3.7462412737 3.7058097288 3.657329819 3.5984456061 3.7454049075 3.7156421835 3.6816134988 3.6424295543 3.5969754326 
3.5438565869 3.4813459737 3.4073543651 3.5642842451 3.4524645613 3.5233842518 3.3320300872 3.403123212 3.4773852225 
3.20576226 3.2746326772 3.348015857 3.4255060145 3.0774230472 3.1415926536 3.2112816139 3.2864685043 3.3668817272 
2.95115522 3.00855263 3.0719036933 3.1415926536 3.2178377658 3.3005964304 2.8307207459 2.8800620952 2.9351694502 
2.9967168029 3.0653475414 3.1415926536 3.225752376 2.718901062 2.7598010554 2.8058000847 2.8576792927 2.91630358 
2.9825888767 3.0574329311 3.1415926536 3.5642842451 3.5233842518 3.4524645613 3.4773852225 3.403123212 3.3320300872 
3.4255060145 3.348015857 3.2746326772 3.20576226 3.3668817272 3.2864685043 3.2112816139 3.1415926536 3.0774230472 
3.3005964304 3.2178377658 3.1415926536 3.0719036933 3.00855263 2.95115522 3.225752376 3.1415926536 3.0653475414 
2.9967168029 2.9351694502 2.8800620952 2.8307207459 3.1415926536 3.0574329311 2.9825888767 2.91630358 2.8576792927 
2.8058000847 2.7598010554 2.718901062 4.526799744 4.426884955 4.4046155105 4.3052269283 4.2918546451 4.2807094886 
4.1588146215 4.1588146215 4.1588146215 4.1588146215 3.9875336042 4.0055183285 4.0201070968 4.0321740035 4.042318168 
3.7967995342 3.8356650183 3.8672112905 3.8932795963 3.9151549899 3.9337570603 3.5984456061 3.657329819 3.7058097288 
3.7462412737 3.7803704271 3.809500442 3.8346145692 3.4073543651 3.4813459737 3.5438565869 3.5969754326 3.6424295543 
3.6816134988 3.7156421835 3.7454049075 4.7123889804 4.8004512023 4.6243267584 4.9155579264 4.7123889804 4.5092200343 
5.0674903122 4.8353719722 4.5894059886 4.3572876485 5.2659633393 5.0120975802 4.7123889804 4.4126803806 4.1588146215 
5.5125918794 5.2659633393 4.9155579264 4.5092200343 4.1588146215 3.9121860814 5.7885595667 5.6029703303 5.2659633393 
4.7123889804 4.1588146215 3.8218076305 3.6362183941 6.0560271438 5.9702140275 5.7885595667 5.2659633393 4.1588146215 
3.6362183941 3.4545639333 3.368750817 0.22715816343 0.49462574053 0.3129712797 0.77059342779 0.68021497688 0.49462574053 
1.0172219679 1.0172219679 1.0172219679 1.0172219679 1.2156949949 1.271087727 1.3676273807 1.5707963268 2.1243706857 
1.3676273807 1.447813335 1.5707963268 1.7739652728 2.1243706857 2.6469669131 1.4827341049 1.5707963268 1.6937793186 
1.8705049266 2.1243706857 2.4613776767 2.8286213739 1.5707963268 1.6588585487 1.7739652728 1.9258976586 2.1243706857 
2.3709992258 2.6469669131 2.9144344902 1.7563855631 1.8785697967 1.8563003522 2.0024758186 1.9913306621 1.9779583789 
2.1243706857 2.1243706857 2.1243706857 2.1243706857 2.2408671392 2.2510113037 2.2630782103 2.2776669786 2.295651703 
2.3494282469 2.3680303173 2.3899057108 2.4159740166 2.4475202889 2.486385773 2.448570738 2.4736848652 2.5028148801 
2.5369440334 2.5773755784 2.6258554882 2.6847397011 2.5377803997 2.5675431237 2.6015718084 2.6407557529 2.6862098746 
2.7393287203 2.8018393335 2.8758309421 1.6743954455 1.6743954455 1.7840462375 1.6743954455 1.7840462375 1.8974821136 
1.6743954455 1.7840462375 1.8974821136 2.0119052671 1.6743954455 1.7840462375 1.8974821136 2.0119052671 2.1243706857 
1.6743954455 1.7840462375 1.8974821136 2.0119052671 2.1243706857 2.232221744 1.6743954455 1.7840462375 1.8974821136 
2.0119052671 2.1243706857 2.232221744 2.3334263672 1.6743954455 1.7840462375 1.8974821136 2.0119052671 2.1243706857 
2.232221744 2.3334263672 2.426721652 1.4671972081 1.3575464161 1.4671972081 1.24411054 1.3575464161 1.4671972081 
1.1296873865 1.24411054 1.3575464161 1.4671972081 1.0172219679 1.1296873865 1.24411054 1.3575464161 1.4671972081 
0.90937090954 1.0172219679 1.1296873865 1.24411054 1.3575464161 1.4671972081 0.80816628637 0.90937090954 1.0172219679 
1.1296873865 1.24411054 1.3575464161 1.4671972081 0.71487100155 0.80816628637 0.90937090954 1.0172219679 1.1296873865 
1.24411054 1.3575464161 1.4671972081 0.60381225391 0.57404952988 0.69302191562 0.54002084522 0.66790778838 0.79216440667 
0.50083690068 0.63877777351 0.77356233629 0.90072551443 0.45538277901 0.60464862014 0.75168694275 0.89058134991 1.0172219679 
0.40226393329 0.56421707518 0.72561863695 0.87851444325 1.0172219679 1.139116835 0.33975332011 0.51573716537 0.69407236469 
0.86392567495 1.0172219679 1.1502619915 1.2630228569 0.26576171152 0.45685295248 0.6552068806 0.84594095064 1.0172219679 
1.1636342747 1.2852923014 1.3852070904 0.22715816343 0.3129712797 0.49462574053 0.49462574053 0.68021497688 0.77059342779 
1.0172219679 1.0172219679 1.0172219679 1.0172219679 2.1243706857 1.5707963268 1.3676273807 1.271087727 1.2156949949 
2.6469669131 2.1243706857 1.7739652728 1.5707963268 1.447813335 1.3676273807 2.8286213739 2.4613776767 2.1243706857 
1.8705049266 1.6937793186 1.5707963268 1.4827341049 2.9144344902 2.6469669131 2.3709992258 2.1243706857 1.9258976586 
1.7739652728 1.6588585487 1.5707963268 1.7563855631 1.8563003522 1.8785697967 1.9779583789 1.9913306621 2.0024758186 
2.1243706857 2.1243706857 2.1243706857 2.1243706857 2.295651703 2.2776669786 2.2630782103 2.2510113037 2.2408671392 
2.486385773 2.4475202889 2.4159740166 2.3899057108 2.3680303173 2.3494282469 2.6847397011 2.6258554882 2.5773755784 
2.5369440334 2.5028148801 2.4736848652 2.448570738 2.8758309421 2.8018393335 2.7393287203 2.6862098746 2.6407557529 
2.6015718084 2.5675431237 2.5377803997 5.8604937156 5.901393709 5.9723133995 5.9473927383 6.0216547488 6.0927478736 
5.9992719463 6.0767621038 6.1501452836 6.2190157008 6.0578962336 6.1383094565 6.2134963469 0 0.064169606361 
6.1241815303 6.206940195 6.2831853072 0.069688960264 0.13304002361 0.19043743361 6.1990255847 0 0.07624511221 
0.14487585072 0.20642320337 0.26153055843 0.3108719077 0 0.084159722458 0.15900377685 0.22528907359 0.28391336087 
0.3357925689 0.38179159818 0.42269159155 5.8604937156 5.9723133995 5.901393709 6.0927478736 6.0216547488 5.9473927383 
6.2190157008 6.1501452836 6.0767621038 5.9992719463 0.064169606361 0 6.2134963469 6.1383094565 6.0578962336 
0.19043743361 0.13304002361 0.069688960264 6.2831853072 6.206940195 6.1241815303 0.3108719077 0.26153055843 0.20642320337 
0.14487585072 0.07624511221 6.2831853072 6.1990255847 0.42269159155 0.38179159818 0.3357925689 0.28391336087 0.22528907359 
0.15900377685 0.084159722458 0 5.6793730533 5.7091357773 5.5901633916 5.743164462 5.6152775188 5.4910209005 
5.7823484065 5.6444075337 5.5096229709 5.3824597928 5.8278025282 5.678536687 5.5314983644 5.3926039573 5.2659633393 
5.8809213739 5.718968232 5.5575666702 5.4046708639 5.2659633393 5.1440684722 5.9434319871 5.7674481418 5.5891129425 
5.4192596322 5.2659633393 5.1329233157 5.0201624502 6.0174235957 5.8263323547 5.6279784266 5.4372443565 5.2659633393 
5.1195510325 4.9978930058 4.8979782167 1.3852070904 1.2852923014 1.2630228569 1.1636342747 1.1502619915 1.139116835 
1.0172219679 1.0172219679 1.0172219679 1.0172219679 0.84594095064 0.86392567495 0.87851444325 0.89058134991 0.90072551443 
0.6552068806 0.69407236469 0.72561863695 0.75168694275 0.77356233629 0.79216440667 0.45685295248 0.51573716537 0.56421707518 
0.60464862014 0.63877777351 0.66790778838 0.69302191562 0.26576171152 0.33975332011 0.40226393329 0.45538277901 0.50083690068 
0.54002084522 0.57404952988 0.60381225391 
_paraPhiHalf 1 1002 double
0 3.1415926536 0 3.1415926536 1.5707963268 1.5707963268 1.5707963268 1.5707963268 2.5880182947 
0.5535743589 2.5880182947 0.5535743589 0 0 0 0 3.1415926536 3.1415926536 
3.1415926536 3.1415926536 3.1415926536 0.17788134 0.38438696014 0.60631181711 0.82323535693 1.0172219679 1.1799687454 
1.3118704726 1.4175000338 1.5022335207 0.17788134 0.38438696014 0.60631181711 0.82323535693 1.0172219679 1.1799687454 
1.3118704726 1.4175000338 1.5022335207 0.093902416448 0.17615329733 0.2478725152 0.31035131605 0.36486382811 0.41257334776 
0.45449736604 0.4915044461 0.52432611754 0.093902416448 0.17615329733 0.2478725152 0.31035131605 0.36486382811 0.41257334776 
0.45449736604 0.4915044461 0.52432611754 2.9637113136 2.7572056934 2.5352808365 2.3183572967 2.1243706857 1.9616239082 
1.829722181 1.7240926197 1.6393591329 2.9637113136 2.7572056934 2.5352808365 2.3183572967 2.1243706857 1.9616239082 
1.829722181 1.7240926197 1.6393591329 3.0476902371 2.9654393563 2.8937201384 2.8312413375 2.7767288255 2.7290193058 
2.6870952876 2.6500882075 2.617266536 3.0476902371 2.9654393563 2.8937201384 2.8312413375 2.7767288255 2.7290193058 
2.6870952876 2.6500882075 2.617266536 0 0 0 0 3.1415926536 3.1415926536 
3.1415926536 3.1415926536 3.1415926536 0.17788134 0.38438696014 0.60631181711 0.82323535693 1.0172219679 1.1799687454 
1.3118704726 1.4175000338 1.5022335207 0.17788134 0.38438696014 0.60631181711 0.82323535693 1.0172219679 1.1799687454 
1.3118704726 1.4175000338 1.5022335207 0.093902416448 0.17615329733 0.2478725152 0.31035131605 0.36486382811 0.41257334776 
0.45449736604 0.4915044461 0.52432611754 0.093902416448 0.17615329733 0.2478725152 0.31035131605 0.36486382811 0.41257334776 
0.45449736604 0.4915044461 0.52432611754 2.9637113136 2.7572056934 2.5352808365 2.3183572967 2.1243706857 1.9616239082 
1.829722181 1.7240926197 1.6393591329 2.9637113136 2.7572056934 2.5352808365 2.3183572967 2.1243706857 1.9616239082 
1.829722181 1.7240926197 1.6393591329 3.0476902371 2.9654393563 2.8937201384 2.8312413375 2.7767288255 2.7290193058 
2.6870952876 2.6500882075 2.617266536 3.0476902371 2.9654393563 2.8937201384 2.8312413375 2.7767288255 2.7290193058 
2.6870952876 2.6500882075 2.617266536 1.5707963268 1.5707963268 1.5707963268 1.5707963268 1.5707963268 1.5707963268 
1.5707963268 1.5707963268 1.5707963268 1.6743954455 1.7840462375 1.8974821136 2.0119052671 2.1243706857 2.232221744 
2.3334263672 2.426721652 2.5115728246 1.4671972081 1.3575464161 1.24411054 1.1296873865 1.0172219679 0.90937090954 
0.80816628637 0.71487100155 0.63001982895 1.6743954455 1.7840462375 1.8974821136 2.0119052671 2.1243706857 2.232221744 
2.3334263672 2.426721652 2.5115728246 1.4671972081 1.3575464161 1.24411054 1.1296873865 1.0172219679 0.90937090954 
0.80816628637 0.71487100155 0.63001982895 1.5707963268 1.5707963268 1.5707963268 1.5707963268 1.5707963268 1.5707963268 
1.5707963268 1.5707963268 1.5707963268 1.6743954455 1.7840462375 1.8974821136 2.0119052671 2.1243706857 2.232221744 
2.3334263672 2.426721652 2.5115728246 1.4671972081 1.3575464161 1.24411054 1.1296873865 1.0172219679 0.90937090954 
0.80816628637 0.71487100155 0.63001982895 1.6743954455 1.7840462375 1.8974821136 2.0119052671 2.1243706857 2.232221744 
2.3334263672 2.426721652 2.5115728246 1.4671972081 1.3575464161 1.24411054 1.1296873865 1.0172219679 0.90937090954 
0.80816628637 0.71487100155 0.63001982895 2.6824132222 2.7864913217 2.8992382033 3.0186096618 3.1415926536 3.0186096618 
2.8992382033 2.7864913217 2.6824132222 0.45917943135 0.35510133185 0.2423544503 0.12298299178 0 0.12298299178 
0.2423544503 0.35510133185 0.45917943135 0.22715816343 0.49462574053 0.3129712797 0.77059342779 0.68021497688 0.49462574053 
1.0172219679 1.0172219679 1.0172219679 1.0172219679 1.2156949949 1.271087727 1.3676273807 1.5707963268 2.1243706857 
1.3676273807 1.447813335 1.5707963268 1.7739652728 2.1243706857 2.6469669131 1.4827341049 1.5707963268 1.6937793186 
1.8705049266 2.1243706857 2.4613776767 2.8286213739 1.5707963268 1.6588585487 1.7739652728 1.9258976586 2.1243706857 
2.3709992258 2.6469669131 2.9144344902 0.26576171152 0.33975332011 0.45685295248 0.40226393329 0.51573716537 0.6552068806 
0.45538277901 0.56421707518 0.69407236469 0.84594095064 0.50083690068 0.60464862014 0.72561863695 0.86392567495 1.0172219679 
0.54002084522 0.63877777351 0.75168694275 0.87851444325 1.0172219679 1.1636342747 0.57404952988 0.66790778838 0.77356233629 
0.89058134991 1.0172219679 1.1502619915 1.2852923014 0.60381225391 0.69302191562 0.79216440667 0.90072551443 1.0172219679 
1.139116835 1.2630228569 1.3852070904 0.71487100155 0.80816628637 0.80816628637 0.90937090954 0.90937090954 0.90937090954 
1.0172219679 1.0172219679 1.0172219679 1.0172219679 1.1296873865 1.1296873865 1.1296873865 1.1296873865 1.1296873865 
1.24411054 1.24411054 1.24411054 1.24411054 1.24411054 1.24411054 1.3575464161 1.3575464161 1.3575464161 
1.3575464161 1.3575464161 1.3575464161 1.3575464161 1.4671972081 1.4671972081 1.4671972081 1.4671972081 1.4671972081 
1.4671972081 1.4671972081 1.4671972081 1.6743954455 1.6743954455 1.7840462375 1.6743954455 1.7840462375 1.8974821136 
1.6743954455 1.7840462375 1.8974821136 2.0119052671 1.6743954455 1.7840462375 1.8974821136 2.0119052671 2.1243706857 
1.6743954455 1.7840462375 1.8974821136 2.0119052671 2.1243706857 2.232221744 1.6743954455 1.7840462375 1.8974821136 
2.0119052671 2.1243706857 2.232221744 2.3334263672 1.6743954455 1.7840462375 1.8974821136 2.0119052671 2.1243706857 
2.232221744 2.3334263672 2.426721652 1.7563855631 1.8785697967 1.8563003522 2.0024758186 1.9913306621 1.9779583789 
2.1243706857 2.1243706857 2.1243706857 2.1243706857 2.2408671392 2.2510113037 2.2630782103 2.2776669786 2.295651703 
2.3494282469 2.3680303173 2.3899057108 2.4159740166 2.4475202889 2.486385773 2.448570738 2.4736848652 2.5028148801 
2.5369440334 2.5773755784 2.6258554882 2.6847397011 2.5377803997 2.5675431237 2.6015718084 2.6407557529 2.6862098746 
2.7393287203 2.8018393335 2.8758309421 2.718901062 2.8307207459 2.7598010554 2.95115522 2.8800620952 2.8058000847 
3.0774230472 3.00855263 2.9351694502 2.8576792927 3.0774230472 3.1415926536 3.0719036933 2.9967168029 2.91630358 
2.95115522 3.00855263 3.0719036933 3.1415926536 3.0653475414 2.9825888767 2.8307207459 2.8800620952 2.9351694502 
2.9967168029 3.0653475414 3.1415926536 3.0574329311 2.718901062 2.7598010554 2.8058000847 2.8576792927 2.91630358 
2.9825888767 3.0574329311 3.1415926536 2.718901062 2.7598010554 2.8307207459 2.8058000847 2.8800620952 2.95115522 
2.8576792927 2.9351694502 3.00855263 3.0774230472 2.91630358 2.9967168029 3.0719036933 3.1415926536 3.0774230472 
2.9825888767 3.0653475414 3.1415926536 3.0719036933 3.00855263 2.95115522 3.0574329311 3.1415926536 3.0653475414 