# vtk DataFile Version 4.2
3D Slicer output. SPACE=LPS
ASCII
DATASET POLYDATA
POINTS 2460 double
4.3288927078 -3.0894818306 -1.4697604179 6.0143871307 -3.9786143303 -0.76989507675 2.6433987617 -3.8476910591 0.085373878479 
2.6433987617 -3.8476910591 0.085373878479 6.0143871307 -3.9786143303 -0.76989507675 6.0143871307 -4.5229229927 0.085373878479 
6.0143871307 -4.5229229927 0.085373878479 5.1716403961 -4.4906125069 0.94064235687 2.6433987617 -3.8476910591 0.085373878479 
6.0143871307 -4.5229229927 0.085373878479 7.6998815536 -4.6868209839 0.94064235687 5.1716403961 -4.4906125069 0.94064235687 
7.6998815536 -4.6868209839 0.94064235687 7.6998815536 -4.7348952293 1.7959108353 5.1716403961 -4.4906125069 0.94064235687 
7.6998815536 -4.3759598732 2.6511802673 5.1716403961 -3.0894818306 2.528055191 5.1716403961 -4.4906125069 0.94064235687 
7.6998815536 -4.3759598732 2.6511802673 5.1716403961 -4.4906125069 0.94064235687 7.6998815536 -4.7348952293 1.7959108353 
6.0143871307 -3.9786143303 -0.76989507675 7.6998815536 -3.5689592361 -0.76989507675 8.5426292419 -3.9707250595 0.085373878479 
6.0143871307 -4.5229229927 0.085373878479 6.0143871307 -3.9786143303 -0.76989507675 8.5426292419 -3.9707250595 0.085373878479 
8.5426292419 -3.9707250595 0.085373878479 7.6998815536 -4.6868209839 0.94064235687 6.0143871307 -4.5229229927 0.085373878479 
8.5426292419 -3.9707250595 0.085373878479 10.067044258 -3.9150147438 1.7959108353 7.6998815536 -4.6868209839 0.94064235687 
7.6998815536 -4.6868209839 0.94064235687 10.067044258 -3.9150147438 1.7959108353 7.6998815536 -4.7348952293 1.7959108353 
7.6998815536 -4.7348952293 1.7959108353 10.067044258 -3.9150147438 1.7959108353 7.6998815536 -4.3759598732 2.6511802673 
7.6998815536 -4.3759598732 2.6511802673 10.067044258 -3.9150147438 1.7959108353 9.3853759766 -3.657377243 3.5064487457 
1.8006515503 -3.2075710297 -0.76989507675 2.6433987617 -3.8476910591 0.085373878479 0.58382558823 -1.4384160042 0.085373878479 
2.6433987617 -3.8476910591 0.085373878479 1.9003691673 -3.0894818306 0.94064235687 0.58382558823 -1.4384160042 0.085373878479 
2.6433987617 -3.8476910591 0.085373878479 1.8006515503 -3.2075710297 -0.76989507675 4.3288927078 -3.0894818306 -1.4697604179 
1.9003691673 -3.0894818306 0.94064235687 2.6433987617 -3.8476910591 0.085373878479 5.1716403961 -4.4906125069 0.94064235687 
5.1716403961 -3.0894818306 2.528055191 1.9003691673 -3.0894818306 0.94064235687 5.1716403961 -4.4906125069 0.94064235687 
6.0143871307 -3.9786143303 -0.76989507675 4.3288927078 -3.0894818306 -1.4697604179 6.0143871307 -3.0894818306 -1.5098214149 
7.6998815536 -3.5689592361 -0.76989507675 6.0143871307 -3.9786143303 -0.76989507675 6.0143871307 -3.0894818306 -1.5098214149 
5.1716403961 -3.0894818306 2.528055191 7.6998815536 -4.3759598732 2.6511802673 6.857134819 -3.0894818306 3.4469633102 
6.857134819 -3.0894818306 3.4469633102 7.6998815536 -4.3759598732 2.6511802673 9.3853759766 -2.2639489174 4.5516719818 
7.6998815536 -4.3759598732 2.6511802673 9.3853759766 -3.657377243 3.5064487457 9.3853759766 -2.2639489174 4.5516719818 
8.5426292419 -3.9707250595 0.085373878479 7.6998815536 -3.5689592361 -0.76989507675 11.056770325 -2.2639489174 0.085373878479 
8.5426292419 -3.9707250595 0.085373878479 11.056770325 -2.2639489174 0.085373878479 10.067044258 -3.9150147438 1.7959108353 
10.067044258 -3.9150147438 1.7959108353 11.913617134 -2.8841276169 3.5064487457 9.3853759766 -3.657377243 3.5064487457 
11.913617134 -2.8841276169 3.5064487457 10.067044258 -3.9150147438 1.7959108353 11.471791267 -3.0894818306 1.7959108353 
1.9003691673 -3.0894818306 0.94064235687 1.05560112 -1.4384160042 0.94064235687 0.58382558823 -1.4384160042 0.085373878479 
1.9003691673 -3.0894818306 0.94064235687 1.8006515503 -1.4384160042 1.6790132523 1.05560112 -1.4384160042 0.94064235687 
1.8006515503 -1.4384160042 -1.7451601028 4.3288927078 -3.0894818306 -1.4697604179 1.8006515503 -3.2075710297 -0.76989507675 
1.8006515503 -1.4384160042 1.6790132523 1.9003691673 -3.0894818306 0.94064235687 4.3288927078 -2.2639489174 2.4828462601 
5.1716403961 -3.0894818306 2.528055191 4.3288927078 -2.2639489174 2.4828462601 1.9003691673 -3.0894818306 0.94064235687 
4.3288927078 -2.2639489174 2.4828462601 5.1716403961 -3.0894818306 2.528055191 6.857134819 -3.0894818306 3.4469633102 
7.6998815536 -3.5689592361 -0.76989507675 6.0143871307 -3.0894818306 -1.5098214149 7.6998815536 -2.2639489174 -1.6991262436 
9.3853759766 -1.4384160042 -1.5543336868 7.6998815536 -3.5689592361 -0.76989507675 7.6998815536 -2.2639489174 -1.6991262436 
7.6998815536 -3.5689592361 -0.76989507675 9.3853759766 -1.4384160042 -1.5543336868 11.056770325 -2.2639489174 0.085373878479 
11.913617134 -2.4530363083 4.3617172241 9.3853759766 -3.657377243 3.5064487457 11.913617134 -2.8841276169 3.5064487457 
9.3853759766 -3.657377243 3.5064487457 11.913617134 -2.4530363083 4.3617172241 10.228122711 -1.4384160042 5.0889186859 
9.3853759766 -2.2639489174 4.5516719818 9.3853759766 -3.657377243 3.5064487457 10.228122711 -1.4384160042 5.0889186859 
10.067044258 -3.9150147438 1.7959108353 11.056770325 -2.2639489174 0.085373878479 11.471791267 -3.0894818306 1.7959108353 
10.228122711 -1.4384160042 5.0889186859 11.913617134 -2.4530363083 4.3617172241 11.913617134 -1.4973225594 5.2169866562 
4.3288927078 -3.0894818306 -1.4697604179 1.8006515503 -1.4384160042 -1.7451601028 5.1716403961 -1.4384160042 -2.316801548 
6.0143871307 -3.0894818306 -1.5098214149 4.3288927078 -3.0894818306 -1.4697604179 5.1716403961 -1.4384160042 -2.316801548 
7.6998815536 -0.61288356781 4.508313179 4.3288927078 -2.2639489174 2.4828462601 6.857134819 -3.0894818306 3.4469633102 
7.6998815536 -2.2639489174 -1.6991262436 6.0143871307 -3.0894818306 -1.5098214149 5.1716403961 -1.4384160042 -2.316801548 
7.6998815536 -0.61288356781 4.508313179 6.857134819 -3.0894818306 3.4469633102 10.228122711 -0.61288356781 5.3499174118 
10.228122711 -0.61288356781 5.3499174118 6.857134819 -3.0894818306 3.4469633102 9.3853759766 -2.2639489174 4.5516719818 
10.228122711 -1.4384160042 5.0889186859 10.228122711 -0.61288356781 5.3499174118 9.3853759766 -2.2639489174 4.5516719818 
11.471791267 -3.0894818306 1.7959108353 13.599112511 -1.936275959 3.5064487457 11.913617134 -2.8841276169 3.5064487457 
14.041121483 -1.4384160042 2.6511802673 13.599112511 -1.936275959 3.5064487457 11.471791267 -3.0894818306 1.7959108353 
11.913617134 -2.8841276169 3.5064487457 13.599112511 -1.936275959 3.5064487457 11.913617134 -2.4530363083 4.3617172241 
11.913617134 -2.4530363083 4.3617172241 13.599112511 -1.936275959 3.5064487457 14.441859245 0.2126493454 5.5036830902 
11.913617134 -1.4973225594 5.2169866562 11.913617134 -2.4530363083 4.3617172241 14.441859245 0.2126493454 5.5036830902 
11.471791267 -3.0894818306 1.7959108353 11.056770325 -2.2639489174 0.085373878479 14.388274193 -0.61288356781 1.7959108353 
14.041121483 -1.4384160042 2.6511802673 11.471791267 -3.0894818306 1.7959108353 14.388274193 -0.61288356781 1.7959108353 
1.8006515503 -3.2075710297 -0.76989507675 0.58382558823 -1.4384160042 0.085373878479 1.8006515503 -1.4384160042 -1.7451601028 
5.1716403961 -1.4384160042 -2.316801548 1.8006515503 -1.4384160042 -1.7451601028 4.3288927078 0.2126493454 -2.6016664505 
4.3288927078 0.2126493454 -2.6016664505 1.8006515503 -1.4384160042 -1.7451601028 1.8006515503 0.2126493454 -1.9262433052 
4.3288927078 -2.2639489174 2.4828462601 4.3288927078 0.2126493454 2.7859601974 1.8006515503 -1.4384160042 1.6790132523 
5.1716403961 -1.4384160042 -2.316801548 4.3288927078 0.2126493454 -2.6016664505 8.5426292419 1.0381822586 -2.7735900879 
4.3288927078 0.2126493454 2.7859601974 4.3288927078 -2.2639489174 2.4828462601 7.6998815536 -0.61288356781 4.508313179 
7.6998815536 -2.2639489174 -1.6991262436 5.1716403961 -1.4384160042 -2.316801548 8.5426292419 1.0381822586 -2.7735900879 
9.3853759766 0.2126493454 -2.2838149071 7.6998815536 -2.2639489174 -1.6991262436 8.5426292419 1.0381822586 -2.7735900879 
9.3853759766 0.2126493454 -2.2838149071 9.3853759766 -1.4384160042 -1.5543336868 7.6998815536 -2.2639489174 -1.6991262436 
11.056770325 -2.2639489174 0.085373878479 9.3853759766 -1.4384160042 -1.5543336868 12.756363869 0.2126493454 -0.51922702789 
11.913617134 -1.4973225594 5.2169866562 10.228122711 -0.61288356781 5.3499174118 10.228122711 -1.4384160042 5.0889186859 
10.228122711 -0.61288356781 5.3499174118 11.913617134 -1.4973225594 5.2169866562 11.913617134 -0.61288356781 5.6339197159 
11.056770325 -2.2639489174 0.085373878479 12.756363869 0.2126493454 -0.51922702789 14.441859245 0.22079467773 0.94064235687 
11.056770325 -2.2639489174 0.085373878479 14.441859245 0.22079467773 0.94064235687 14.388274193 -0.61288356781 1.7959108353 
14.041121483 -1.4384160042 2.6511802673 15.28460598 -0.076683998108 4.3617172241 13.599112511 -1.936275959 3.5064487457 
15.28460598 -0.076683998108 4.3617172241 14.441859245 0.2126493454 5.5036830902 13.599112511 -1.936275959 3.5064487457 
0.67273521423 0.2126493454 -0.76989507675 0.58382558823 -1.4384160042 0.085373878479 0.50852632523 1.0381822586 0.085373878479 
0.58382558823 -1.4384160042 0.085373878479 1.8006515503 1.0381822586 1.7837505341 0.50852632523 1.0381822586 0.085373878479 
0.67273521423 0.2126493454 -0.76989507675 1.8006515503 -1.4384160042 -1.7451601028 0.58382558823 -1.4384160042 0.085373878479 
0.58382558823 -1.4384160042 0.085373878479 1.05560112 -1.4384160042 0.94064235687 1.8006515503 1.0381822586 1.7837505341 
1.8006515503 -1.4384160042 -1.7451601028 0.67273521423 0.2126493454 -0.76989507675 1.8006515503 0.2126493454 -1.9262433052 
1.05560112 -1.4384160042 0.94064235687 1.8006515503 -1.4384160042 1.6790132523 1.8006515503 1.0381822586 1.7837505341 
10.228122711 -0.61288356781 5.3499174118 11.070870399 1.0381822586 5.7789697647 7.6998815536 -0.61288356781 4.508313179 
9.3853759766 0.2126493454 -2.2838149071 14.441859245 3.5147809982 -1.0454797745 9.3853759766 -1.4384160042 -1.5543336868 
[...]
CELL_DATA 820
FIELD FieldData 1
GroupIds 1 820 float
0 0 0 0 0 0 0 0 0 
0 0 0 0 0 0 0 0 0 
0 0 0 0 0 0 0 0 0 
0 0 0 0 0 0 0 0 0 
0 0 0 0 0 0 0 0 0 
0 0 0 0 0 0 0 0 0 
0 0 0 0 0 0 0 0 0 
0 0 0 0 0 0 0 0 0 
0 0 0 0 0 0 0 0 0 
0 0 0 0 0 0 0 0 0 
0 0 0 0 0 0 0 0 0 
0 0 0 0 0 0 0 0 0 
0 0 0 0 0 0 0 0 0 
0 0 0 0 0 0 0 0 0 
0 0 0 0 0 0 0 0 0 
0 0 0 0 0 0 0 0 0 
0 0 0 0 0 0 0 0 0 
0 0 0 0 0 0 0 0 0 
0 0 0 0 0 0 0 0 0 
0 0 0 0 0 0 0 0 0 
0 0 0 0 0 0 0 0 0 
0 0 0 0 0 0 0 0 0 
0 0 0 0 0 0 0 0 0 
0 0 0 0 0 0 0 0 0 
0 0 0 0 0 0 0 0 0 
0 0 0 0 0 0 0 0 0 
0 0 0 0 0 0 0 0 0 
0 0 0 0 0 0 0 0 0 
0 0 0 0 0 0 0 0 0 
0 0 0 0 0 0 0 0 0 
0 0 0 0 0 0 0 0 0 
0 0 0 0 0 0 0 0 0 
0 0 0 0 0 0 0 0 0 
0 0 0 0 0 0 0 0 0 
0 0 0 0 0 0 0 0 0 
0 0 0 0 0 0 0 0 0 
0 0 0 0 0 0 0 0 0 
0 0 0 0 0 0 0 0 0 
0 0 0 0 0 0 0 0 0 
0 0 0 0 0 0 0 0 0 
0 0 0 0 0 0 0 0 0 
0 0 0 0 0 0 0 0 0 
0 0 0 0 0 0 0 0 0 
0 0 0 0 0 0 0 0 0 
0 0 0 0 0 0 0 0 0 
0 0 0 0 0 0 0 0 0 
0 0 0 0 0 0 0 0 0 
0 0 0 0 0 0 0 0 0 
0 0 0 0 0 0 0 0 0 
0 0 0 0 0 0 0 0 0 
0 0 0 0 0 0 0 0 0 
0 0 0 0 0 0 0 0 0 
0 0 0 0 0 0 0 0 0 
0 0 0 0 0 0 0 0 0 
0 0 0 0 0 0 0 0 0 
0 0 0 0 0 0 0 0 0 
0 0 0 0 0 0 0 0 0 
0 0 0 0 0 0 0 0 0 
0 0 0 0 0 0 0 0 0 
0 0 0 0 0 0 0 0 0 
0 0 0 0 0 0 0 0 0 
0 0 0 0 0 0 0 0 0 
0 0 0 0 0 0 0 0 0 
0 0 0 0 0 0 0 0 0 
0 0 0 0 0 0 0 0 0 
0 0 0 0 0 0 0 0 0 
0 0 0 0 0 0 0 0 0 
0 0 0 0 0 0 0 0 0 
0 0 0 0 0 0 0 0 0 
0 0 0 0 0 0 0 0 0 
0 0 0 0 0 0 0 0 0 
0 0 0 0 0 0 0 0 0 
0 0 0 0 0 0 0 0 0 
0 0 0 0 0 0 0 0 0 
0 0 0 0 0 0 0 0 0 
0 0 0 0 0 0 0 0 0 
0 0 0 0 0 0 0 0 0 
0 0 0 0 0 0 0 0 0 
0 0 0 0 0 0 0 0 0 
0 0 0 0 0 0 0 0 0 
0 0 0 0 0 0 0 0 0 
0 0 0 0 0 0 0 0 0 
0 0 0 0 0 0 0 0 0 
0 0 0 0 0 0 0 0 0 
0 0 0 0 0 0 0 0 0 
0 0 0 0 0 0 0 0 0 
0 0 0 0 0 0 0 0 0 
0 0 0 0 0 0 0 0 0 
0 0 0 0 0 0 0 0 0 
0 0 0 0 0 0 0 0 0 
0 0 0 0 0 0 0 0 0 
0 
POINT_DATA 2460
NORMALS Normals float
-0.17813 -0.79457 -0.580456 -0.17813 -0.79457 -0.580456 -0.17813 -0.79457 -0.580456 
-0.166625 -0.831847 -0.529402 -0.166625 -0.831847 -0.529402 -0.166625 -0.831847 -0.529402 
-0.194044 -0.968733 -0.154606 -0.194044 -0.968733 -0.154606 -0.194044 -0.968733 -0.154606 
-0.0773166 -0.996261 -0.0385476 -0.0773166 -0.996261 -0.0385476 -0.0773166 -0.996261 -0.0385476 
-0.0772528 -0.99544 -0.0559532 -0.0772528 -0.99544 -0.0559532 -0.0772528 -0.99544 -0.0559532 
-0.382295 -0.692778 0.611481 -0.382295 -0.692778 0.611481 -0.382295 -0.692778 0.611481 
-0.214865 -0.900553 0.37794 -0.214865 -0.900553 0.37794 -0.214865 -0.900553 0.37794 
0.194463 -0.800103 -0.567467 0.194463 -0.800103 -0.567467 0.194463 -0.800103 -0.567467 
0.181211 -0.829674 -0.528019 0.181211 -0.829674 -0.528019 0.181211 -0.829674 -0.528019 
0.182348 -0.834881 -0.519348 0.182348 -0.834881 -0.519348 0.182348 -0.834881 -0.519348 
0.397526 -0.857598 -0.32634 0.397526 -0.857598 -0.32634 0.397526 -0.857598 -0.32634 
0.32682 -0.943597 -0.0530392 0.32682 -0.943597 -0.0530392 0.32682 -0.943597 -0.0530392 
0.304232 -0.87838 0.368634 0.304232 -0.87838 0.368634 0.304232 -0.87838 0.368634 
0.270726 -0.930167 0.247987 0.270726 -0.930167 0.247987 0.270726 -0.930167 0.247987 
-0.735179 -0.628469 0.254042 -0.735179 -0.628469 0.254042 -0.735179 -0.628469 0.254042 
-0.757429 -0.647489 -0.0840199 -0.757429 -0.647489 -0.0840199 -0.757429 -0.647489 -0.0840199 
-0.10635 -0.84349 -0.526511 -0.10635 -0.84349 -0.526511 -0.10635 -0.84349 -0.526511 
-0.355932 -0.831008 0.427479 -0.355932 -0.831008 0.427479 -0.355932 -0.831008 0.427479 
-0.305742 -0.713826 0.630059 -0.305742 -0.713826 0.630059 -0.305742 -0.713826 0.630059 
-0.0182664 -0.639558 -0.768525 -0.0182664 -0.639558 -0.768525 -0.0182664 -0.639558 -0.768525 
0.153623 -0.632072 -0.759529 0.153623 -0.632072 -0.759529 0.153623 -0.632072 -0.759529 
-0.363518 -0.650586 0.666778 -0.363518 -0.650586 0.666778 -0.363518 -0.650586 0.666778 
-0.153359 -0.590555 0.792292 -0.153359 -0.590555 0.792292 -0.153359 -0.590555 0.792292 
-0.148435 -0.593409 0.791096 -0.148435 -0.593409 0.791096 -0.148435 -0.593409 0.791096 
0.408819 -0.602205 -0.685722 0.408819 -0.602205 -0.685722 0.408819 -0.602205 -0.685722 
0.507618 -0.747739 -0.428031 0.507618 -0.747739 -0.428031 0.507618 -0.747739 -0.428031 
0.28302 -0.925372 0.252164 0.28302 -0.925372 0.252164 0.28302 -0.925372 0.252164 
0.506471 -0.861823 -0.0273557 0.506471 -0.861823 -0.0273557 0.506471 -0.861823 -0.0273557 
-0.79909 -0.408855 0.440787 -0.79909 -0.408855 0.440787 -0.79909 -0.408855 0.440787 
-0.662272 -0.338852 0.668263 -0.662272 -0.338852 0.668263 -0.662272 -0.338852 0.668263 
-0.214745 -0.471503 -0.855318 -0.214745 -0.471503 -0.855318 -0.214745 -0.471503 -0.855318 
-0.393001 -0.395072 0.830342 -0.393001 -0.395072 0.830342 -0.393001 -0.395072 0.830342 
-0.405848 -0.36851 0.836354 -0.405848 -0.36851 0.836354 -0.405848 -0.36851 0.836354 
-0.438042 -0.403176 0.803473 -0.438042 -0.403176 0.803473 -0.438042 -0.403176 0.803473 
0.189125 -0.569563 -0.799893 0.189125 -0.569563 -0.799893 0.189125 -0.569563 -0.799893 
0.333766 -0.54677 -0.767882 0.333766 -0.54677 -0.767882 0.333766 -0.54677 -0.767882 
0.405606 -0.580759 -0.705835 0.405606 -0.580759 -0.705835 0.405606 -0.580759 -0.705835 
0.263464 -0.861429 0.434197 0.263464 -0.861429 0.434197 0.263464 -0.861429 0.434197 
0.00142156 -0.580987 0.813911 0.00142156 -0.580987 0.813911 0.00142156 -0.580987 0.813911 
0.0775954 -0.598247 0.797546 0.0775954 -0.598247 0.797546 0.0775954 -0.598247 0.797546 
0.445997 -0.758919 -0.474477 0.445997 -0.758919 -0.474477 0.445997 -0.758919 -0.474477 
-0.0796728 -0.664743 0.742812 -0.0796728 -0.664743 0.742812 -0.0796728 -0.664743 0.742812 
-0.15412 -0.387599 -0.908853 -0.15412 -0.387599 -0.908853 -0.15412 -0.387599 -0.908853 
-0.0212464 -0.447753 -0.893905 -0.0212464 -0.447753 -0.893905 -0.0212464 -0.447753 -0.893905 
-0.412673 -0.236541 0.87963 -0.412673 -0.236541 0.87963 -0.412673 -0.236541 0.87963 
0.0927568 -0.398611 -0.912418 0.0927568 -0.398611 -0.912418 0.0927568 -0.398611 -0.912418 
-0.302593 -0.286591 0.909012 -0.302593 -0.286591 0.909012 -0.302593 -0.286591 0.909012 
-0.304474 -0.28414 0.909154 -0.304474 -0.28414 0.909154 -0.304474 -0.28414 0.909154 
-0.298315 -0.287725 0.910067 -0.298315 -0.287725 0.910067 -0.298315 -0.287725 0.910067 
0.490049 -0.871418 -0.0219621 0.490049 -0.871418 -0.0219621 0.490049 -0.871418 -0.0219621 
0.572312 -0.801993 -0.171073 0.572312 -0.801993 -0.171073 0.572312 -0.801993 -0.171073 
0.448767 -0.798009 0.40223 0.448767 -0.798009 0.40223 0.448767 -0.798009 0.40223 
0.484461 -0.68991 0.537887 0.484461 -0.68991 0.537887 0.484461 -0.68991 0.537887 
0.344141 -0.62613 0.699663 0.344141 -0.62613 0.699663 0.344141 -0.62613 0.699663 
0.573121 -0.674917 -0.46478 0.573121 -0.674917 -0.46478 0.573121 -0.674917 -0.46478 
0.585125 -0.689052 -0.427593 0.585125 -0.689052 -0.427593 0.585125 -0.689052 -0.427593 
-0.796526 -0.291882 -0.529482 -0.796526 -0.291882 -0.529482 -0.796526 -0.291882 -0.529482 
-0.161988 -0.247497 -0.955251 -0.161988 -0.247497 -0.955251 -0.161988 -0.247497 -0.955251 
-0.256663 -0.105371 -0.96074 -0.256663 -0.105371 -0.96074 -0.256663 -0.105371 -0.96074 
-0.334758 -0.114476 0.935325 -0.334758 -0.114476 0.935325 -0.334758 -0.114476 0.935325 
-0.00626636 -0.173124 -0.98488 -0.00626636 -0.173124 -0.98488 -0.00626636 -0.173124 -0.98488 
-0.473033 -0.107033 0.874519 -0.473033 -0.107033 0.874519 -0.473033 -0.107033 0.874519 
0.119135 -0.334577 -0.934807 0.119135 -0.334577 -0.934807 0.119135 -0.334577 -0.934807 
0.19264 -0.347734 -0.91759 0.19264 -0.347734 -0.91759 0.19264 -0.347734 -0.91759 
0.266516 -0.389519 -0.881614 0.266516 -0.389519 -0.881614 0.266516 -0.389519 -0.881614 
0.468392 -0.499373 -0.728859 0.468392 -0.499373 -0.728859 0.468392 -0.499373 -0.728859 
-0.0826991 -0.300418 0.950216 -0.0826991 -0.300418 0.950216 -0.0826991 -0.300418 0.950216 
-0.150672 -0.421537 0.894206 -0.150672 -0.421537 0.894206 -0.150672 -0.421537 0.894206 
0.554251 -0.53585 -0.636922 0.554251 -0.53585 -0.636922 0.554251 -0.53585 -0.636922 
0.580122 -0.601144 -0.549622 0.580122 -0.601144 -0.549622 0.580122 -0.601144 -0.549622 
0.742371 -0.669959 -0.00632684 0.742371 -0.669959 -0.00632684 0.742371 -0.669959 -0.00632684 
0.48865 -0.689049 0.535194 0.48865 -0.689049 0.535194 0.48865 -0.689049 0.535194 
-0.986585 -0.0299964 -0.160468 -0.986585 -0.0299964 -0.160468 -0.986585 -0.0299964 -0.160468 
-0.795622 -0.0241903 0.60531 -0.795622 -0.0241903 0.60531 -0.795622 -0.0241903 0.60531 
-0.809441 -0.235136 -0.538067 -0.809441 -0.235136 -0.538067 -0.809441 -0.235136 -0.538067 
-0.871361 0.0985085 0.480652 -0.871361 0.0985085 0.480652 -0.871361 0.0985085 0.480652 
-0.713763 -0.0763583 -0.696213 -0.713763 -0.0763583 -0.696213 -0.713763 -0.0763583 -0.696213 
-0.703598 -0.0300249 0.709963 -0.703598 -0.0300249 0.709963 -0.703598 -0.0300249 0.709963 
-0.314698 -0.0850388 0.945375 -0.314698 -0.0850388 0.945375 -0.314698 -0.0850388 0.945375 
0.438515 -0.363207 -0.822062 0.438515 -0.363207 -0.822062 0.438515 -0.363207 -0.822062 
0.427716 -0.351064 -0.832955 0.427716 -0.351064 -0.832955 0.427716 -0.351064 -0.832955 
-0.163766 -0.168976 0.97192 -0.163766 -0.168976 0.97192 -0.163766 -0.168976 0.97192 
-0.106131 -0.14065 0.984355 -0.106131 -0.14065 0.984355 -0.106131 -0.14065 0.984355 
0.182699 -0.419228 0.889308 0.182699 -0.419228 0.889308 0.182699 -0.419228 0.889308 
0.784697 -0.614536 -0.0812172 0.784697 -0.614536 -0.0812172 0.784697 -0.614536 -0.0812172 
-0.684453 0.292918 -0.667624 -0.684453 0.292918 -0.667624 -0.684453 0.292918 -0.667624 
-0.769292 0.256204 0.585277 -0.769292 0.256204 0.585277 -0.769292 0.256204 0.585277 
-0.379233 -0.0390968 0.924475 -0.379233 -0.0390968 0.924475 -0.379233 -0.0390968 0.924475 
-0.00758794 -0.16661 -0.985994 -0.00758794 -0.16661 -0.985994 -0.00758794 -0.16661 -0.985994 
-0.437554 0.0815813 0.895484 -0.437554 0.0815813 0.895484 -0.437554 0.0815813 0.895484 
-0.333812 -0.0431473 0.941652 -0.333812 -0.0431473 0.941652 -0.333812 -0.0431473 0.941652 
0.663644 -0.443779 0.602193 0.663644 -0.443779 0.602193 0.663644 -0.443779 0.602193 
0.784137 -0.574043 -0.235804 0.784137 -0.574043 -0.235804 0.784137 -0.574043 -0.235804 
0.824353 -0.551244 0.128732 0.824353 -0.551244 0.128732 0.824353 -0.551244 0.128732 
-0.651842 0.204922 -0.730143 -0.651842 0.204922 -0.730143 -0.651842 0.204922 -0.730143 
-0.257974 0.0312542 -0.965646 -0.257974 0.0312542 -0.965646 -0.257974 0.0312542 -0.965646 
-0.29128 0.0680017 -0.954218 -0.29128 0.0680017 -0.954218 -0.29128 0.0680017 -0.954218 
-0.308355 0.187781 0.932553 -0.308355 0.187781 0.932553 -0.308355 0.187781 0.932553 
-0.453803 0.175903 0.873568 -0.453803 0.175903 0.873568 -0.453803 0.175903 0.873568 
0.300727 -0.240532 -0.92288 0.300727 -0.240532 -0.92288 0.300727 -0.240532 -0.92288 
0.41511 -0.315671 -0.85325 0.41511 -0.315671 -0.85325 0.41511 -0.315671 -0.85325 
-0.142169 -0.0326214 0.989305 -0.142169 -0.0326214 0.989305 -0.142169 -0.0326214 0.989305 
0.597035 -0.414228 -0.686997 0.597035 -0.414228 -0.686997 0.597035 -0.414228 -0.686997 
0.147774 -0.304097 0.94111 0.147774 -0.304097 0.94111 0.147774 -0.304097 0.94111 
0.292553 -0.225435 0.929297 0.292553 -0.225435 0.929297 0.292553 -0.225435 0.929297 
0.729881 -0.511794 -0.453145 0.729881 -0.511794 -0.453145 0.729881 -0.511794 -0.453145 
0.647588 -0.384428 0.65791 0.647588 -0.384428 0.65791 0.647588 -0.384428 0.65791 
0.79095 -0.513579 -0.332618 0.79095 -0.513579 -0.332618 0.79095 -0.513579 -0.332618 
-0.524793 0.411742 -0.745024 -0.524793 0.411742 -0.745024 -0.524793 0.411742 -0.745024 
-0.862488 0.271143 -0.427311 -0.862488 0.271143 -0.427311 -0.862488 0.271143 -0.427311 
-0.881639 0.466512 -0.0712702 -0.881639 0.466512 -0.0712702 -0.881639 0.466512 -0.0712702 
-0.85068 0.45013 0.271527 -0.85068 0.45013 0.271527 -0.85068 0.45013 0.271527 
-0.406045 0.366464 0.837157 -0.406045 0.366464 0.837157 -0.406045 0.366464 0.837157 
-0.161294 -0.00985137 -0.986857 -0.161294 -0.00985137 -0.986857 -0.161294 -0.00985137 -0.986857 
-0.469686 0.0832679 0.878898 -0.469686 0.0832679 0.878898 -0.469686 0.0832679 0.878898 
0.245397 -0.147399 -0.958151 0.245397 -0.147399 -0.958151 0.245397 -0.147399 -0.958151 
-0.39745 0.171458 0.901463 -0.39745 0.171458 0.901463 -0.39745 0.171458 0.901463 
-0.235437 0.0661249 0.969638 -0.235437 0.0661249 0.969638 -0.235437 0.0661249 0.969638 
0.558612 -0.42828 -0.710303 0.558612 -0.42828 -0.710303 0.558612 -0.42828 -0.710303 
0.839211 -0.440243 -0.319236 0.839211 -0.440243 -0.319236 0.839211 -0.440243 -0.319236 
0.922034 -0.386277 0.0253672 0.922034 -0.386277 0.0253672 0.922034 -0.386277 0.0253672 
0.890809 -0.43256 0.13911 0.890809 -0.43256 0.13911 0.890809 -0.43256 0.13911 
-0.763363 0.598919 -0.242017 -0.763363 0.598919 -0.242017 -0.763363 0.598919 -0.242017 
-0.564365 0.386484 -0.729467 -0.564365 0.386484 -0.729467 -0.564365 0.386484 -0.729467 
-0.412739 0.261447 -0.87252 -0.412739 0.261447 -0.87252 -0.412739 0.261447 -0.87252 
-0.365338 0.496655 0.787313 -0.365338 0.496655 0.787313 -0.365338 0.496655 0.787313 
0.128749 -0.119951 -0.984396 0.128749 -0.119951 -0.984396 0.128749 -0.119951 -0.984396 
-0.247348 0.0926469 0.964487 -0.247348 0.0926469 0.964487 -0.247348 0.0926469 0.964487 
0.260773 -0.171816 0.949988 0.260773 -0.171816 0.949988 0.260773 -0.171816 0.949988 
0.0570769 -0.0329025 0.997827 0.0570769 -0.0329025 0.997827 0.0570769 -0.0329025 0.997827 
0.628601 -0.440777 -0.640762 0.628601 -0.440777 -0.640762 0.628601 -0.440777 -0.640762 
0.533543 -0.460116 0.709665 0.533543 -0.460116 0.709665 0.533543 -0.460116 0.709665 
0.839275 -0.44818 -0.307817 0.839275 -0.44818 -0.307817 0.839275 -0.44818 -0.307817 
0.790806 -0.384001 0.476623 0.790806 -0.384001 0.476623 0.790806 -0.384001 0.476623 
-0.53296 0.724528 0.43705 -0.53296 0.724528 0.43705 -0.53296 0.724528 0.43705 
-0.522937 0.454771 0.720916 -0.522937 0.454771 0.720916 -0.522937 0.454771 0.720916 
-0.100515 0.114708 -0.988301 -0.100515 0.114708 -0.988301 -0.100515 0.114708 -0.988301 
-0.480566 0.405289 0.777687 -0.480566 0.405289 0.777687 -0.480566 0.405289 0.777687 
0.0373394 0.068503 -0.996952 0.0373394 0.068503 -0.996952 0.0373394 0.068503 -0.996952 
0.411629 -0.27748 -0.868082 0.411629 -0.27748 -0.868082 0.411629 -0.27748 -0.868082 
0.592375 -0.285886 -0.753234 0.592375 -0.285886 -0.753234 0.592375 -0.285886 -0.753234 
0.548484 -0.254586 -0.796462 0.548484 -0.254586 -0.796462 0.548484 -0.254586 -0.796462 
0.0353076 0.0116681 0.999308 0.0353076 0.0116681 0.999308 0.0353076 0.0116681 0.999308 
0.708732 -0.329084 -0.624022 0.708732 -0.329084 -0.624022 0.708732 -0.329084 -0.624022 
0.727941 -0.351544 -0.588658 0.727941 -0.351544 -0.588658 0.727941 -0.351544 -0.588658 
0.802885 -0.387736 -0.45281 0.802885 -0.387736 -0.45281 0.802885 -0.387736 -0.45281 
0.947204 -0.295909 0.123464 0.947204 -0.295909 0.123464 0.947204 -0.295909 0.123464 
0.827365 -0.258471 0.498658 0.827365 -0.258471 0.498658 0.827365 -0.258471 0.498658 
-0.598518 0.781284 -0.177119 -0.598518 0.781284 -0.177119 -0.598518 0.781284 -0.177119 
-0.668377 0.736395 0.104857 -0.668377 0.736395 0.104857 -0.668377 0.736395 0.104857 
-0.586209 0.645865 -0.489099 -0.586209 0.645865 -0.489099 -0.586209 0.645865 -0.489099 
-0.532773 0.695463 0.482166 -0.532773 0.695463 0.482166 -0.532773 0.695463 0.482166 
-0.225299 0.308329 -0.924215 -0.225299 0.308329 -0.924215 -0.225299 0.308329 -0.924215 
0.411715 0.000105697 0.911313 0.411715 0.000105697 0.911313 0.411715 0.000105697 0.911313 
0.6234 -0.289462 -0.72635 0.6234 -0.289462 -0.72635 0.6234 -0.289462 -0.72635 
-0.578537 0.65438 -0.486909 -0.578537 0.65438 -0.486909 -0.578537 0.65438 -0.486909 
-0.317865 0.361444 -0.876539 -0.317865 0.361444 -0.876539 -0.317865 0.361444 -0.876539 
0.292978 -0.0959764 -0.95129 0.292978 -0.0959764 -0.95129 0.292978 -0.0959764 -0.95129 
0.302958 -0.103742 -0.94734 0.302958 -0.103742 -0.94734 0.302958 -0.103742 -0.94734 
-0.20763 0.134766 0.96888 -0.20763 0.134766 0.96888 -0.20763 0.134766 0.96888 
0.108502 0.0866081 0.990316 0.108502 0.0866081 0.990316 0.108502 0.0866081 0.990316 
-0.55558 0.760797 -0.335438 -0.55558 0.760797 -0.335438 -0.55558 0.760797 -0.335438 
-0.585887 0.8023 0.114241 -0.585887 0.8023 0.114241 -0.585887 0.8023 0.114241 
-0.487069 0.645202 -0.588624 -0.487069 0.645202 -0.588624 -0.487069 0.645202 -0.588624 
-0.571098 0.803615 0.167481 -0.571098 0.803615 0.167481 -0.571098 0.803615 0.167481 
-0.562269 0.665405 0.49101 -0.562269 0.665405 0.49101 -0.562269 0.665405 0.49101 
-0.559945 0.680894 0.472065 -0.559945 0.680894 0.472065 -0.559945 0.680894 0.472065 
-0.509541 0.518782 0.686464 -0.509541 0.518782 0.686464 -0.509541 0.518782 0.686464 
-0.587996 0.52517 0.615189 -0.587996 0.52517 0.615189 -0.587996 0.52517 0.615189 
-0.504232 0.379087 0.775914 -0.504232 0.379087 0.775914 -0.504232 0.379087 0.775914 
0.146578 0.123493 -0.98146 0.146578 0.123493 -0.98146 0.146578 0.123493 -0.98146 
-0.455798 0.349388 0.818643 -0.455798 0.349388 0.818643 -0.455798 0.349388 0.818643 
-0.204212 0.224104 0.95293 -0.204212 0.224104 0.95293 -0.204212 0.224104 0.95293 
-0.0425904 0.187968 0.981251 -0.0425904 0.187968 0.981251 -0.0425904 0.187968 0.981251 
0.262533 0.000111915 0.964923 0.262533 0.000111915 0.964923 0.262533 0.000111915 0.964923 
0.791974 -0.194958 0.578592 0.791974 -0.194958 0.578592 0.791974 -0.194958 0.578592 
0.593707 -0.154609 0.789689 0.593707 -0.154609 0.789689 0.593707 -0.154609 0.789689 
0.743533 -0.443305 -0.500639 0.743533 -0.443305 -0.500639 0.743533 -0.443305 -0.500639 
0.853241 -0.50952 0.111217 0.853241 -0.50952 0.111217 0.853241 -0.50952 0.111217 
0.866527 -0.417254 -0.273914 0.866527 -0.417254 -0.273914 0.866527 -0.417254 -0.273914 
0.80346 -0.390526 0.44938 0.80346 -0.390526 0.44938 0.80346 -0.390526 0.44938 
-0.488891 0.635098 -0.598027 -0.488891 0.635098 -0.598027 -0.488891 0.635098 -0.598027 
-0.583355 0.757814 -0.292258 -0.583355 0.757814 -0.292258 -0.583355 0.757814 -0.292258 
-0.0866656 0.425841 -0.900638 -0.0866656 0.425841 -0.900638 -0.0866656 0.425841 -0.900638 
0.0455968 0.369904 -0.927951 0.0455968 0.369904 -0.927951 0.0455968 0.369904 -0.927951 
-0.479425 0.371486 0.795079 -0.479425 0.371486 0.795079 -0.479425 0.371486 0.795079 
0.123724 -0.148513 -0.98114 0.123724 -0.148513 -0.98114 0.123724 -0.148513 -0.98114 
0.468278 -0.143827 -0.871797 0.468278 -0.143827 -0.871797 0.468278 -0.143827 -0.871797 
0.570833 -0.277456 0.772766 0.570833 -0.277456 0.772766 0.570833 -0.277456 0.772766 
0.680652 -0.421371 -0.599299 0.680652 -0.421371 -0.599299 0.680652 -0.421371 -0.599299 
0.826577 -0.492817 -0.271848 0.826577 -0.492817 -0.271848 0.826577 -0.492817 -0.271848 
0.811418 -0.584 0.0233505 0.811418 -0.584 0.0233505 0.811418 -0.584 0.0233505 
-0.248374 0.705222 -0.664057 -0.248374 0.705222 -0.664057 -0.248374 0.705222 -0.664057 
-0.329073 0.934355 -0.136721 -0.329073 0.934355 -0.136721 -0.329073 0.934355 -0.136721 
-0.234455 0.696858 -0.677805 -0.234455 0.696858 -0.677805 -0.234455 0.696858 -0.677805 
-0.593102 0.647842 0.47805 -0.593102 0.647842 0.47805 -0.593102 0.647842 0.47805 
-0.58124 0.634885 0.509 -0.58124 0.634885 0.509 -0.58124 0.634885 0.509 
-0.118024 0.451938 -0.884207 -0.118024 0.451938 -0.884207 -0.118024 0.451938 -0.884207 
-0.273625 0.294354 0.915688 -0.273625 0.294354 0.915688 -0.273625 0.294354 0.915688 
0.262417 0.0297991 0.964494 0.262417 0.0297991 0.964494 0.262417 0.0297991 0.964494 
0.611002 -0.301086 -0.732137 0.611002 -0.301086 -0.732137 0.611002 -0.301086 -0.732137 
0.608902 -0.365371 0.70409 0.608902 -0.365371 0.70409 0.608902 -0.365371 0.70409 
0.749712 -0.464124 -0.47172 0.749712 -0.464124 -0.47172 0.749712 -0.464124 -0.47172 
-0.519288 0.840826 0.152812 -0.519288 0.840826 0.152812 -0.519288 0.840826 0.152812 
-0.563161 0.825374 0.0400868 -0.563161 0.825374 0.0400868 -0.563161 0.825374 0.0400868 
-0.430692 0.697372 -0.572866 -0.430692 0.697372 -0.572866 -0.430692 0.697372 -0.572866 
-0.312065 0.68104 -0.66242 -0.312065 0.68104 -0.66242 -0.312065 0.68104 -0.66242 
-0.294938 0.629656 -0.71871 -0.294938 0.629656 -0.71871 -0.294938 0.629656 -0.71871 
0.118652 -0.158487 -0.980206 0.118652 -0.158487 -0.980206 0.118652 -0.158487 -0.980206 