# vtk DataFile Version 4.2
3D Slicer output. SPACE=LPS
ASCII
DATASET POLYDATA
POINTS 2700 double
2.3263568878 -3.3182759285 -0.58563995361 3.8881630898 -3.6121635437 -0.58563995361 2.3263568878 -3.56727314 0.21949386597 
3.8881630898 -3.6121635437 -0.58563995361 3.2569384575 -3.6367998123 1.0246276855 2.3263568878 -3.56727314 0.21949386597 
3.8881630898 -3.6121635437 -0.58563995361 6.2308721542 -4.3495922089 1.0246276855 3.2569384575 -3.6367998123 1.0246276855 
6.2308721542 -4.3495922089 1.0246276855 6.2308721542 -4.2445831299 1.8297615051 3.2569384575 -3.6367998123 1.0246276855 
3.2569384575 -3.6367998123 1.0246276855 6.2308721542 -4.2445831299 1.8297615051 5.4499692917 -3.6367998123 2.3796472549 
5.4499692917 -3.5861973763 -0.58563995361 6.2308721542 -4.3495922089 1.0246276855 3.8881630898 -3.6121635437 -0.58563995361 
7.792678833 -3.8160662651 0.21949386597 6.2308721542 -4.3495922089 1.0246276855 5.4499692917 -3.5861973763 -0.58563995361 
5.4499692917 -3.6367998123 2.3796472549 6.2308721542 -4.2445831299 1.8297615051 8.5735816956 -2.8595385551 4.0111608505 
6.2308721542 -4.3495922089 1.0246276855 7.792678833 -4.1547574997 2.6348953247 6.2308721542 -4.2445831299 1.8297615051 
6.2308721542 -4.2445831299 1.8297615051 7.792678833 -4.1547574997 2.6348953247 8.5735816956 -2.8595385551 4.0111608505 
8.5735816956 -3.5432796478 0.21949386597 8.5735816956 -4.0302872658 1.0246276855 7.792678833 -3.8160662651 0.21949386597 
7.792678833 -3.8160662651 0.21949386597 8.5735816956 -4.0302872658 1.0246276855 6.2308721542 -4.3495922089 1.0246276855 
8.5735816956 -4.0302872658 1.0246276855 8.5735816956 -4.2083592415 1.8297615051 6.2308721542 -4.3495922089 1.0246276855 
6.2308721542 -4.3495922089 1.0246276855 8.5735816956 -4.2083592415 1.8297615051 7.792678833 -4.1547574997 2.6348953247 
7.792678833 -4.1547574997 2.6348953247 8.5735816956 -4.2083592415 1.8297615051 9.3544845581 -3.4669270515 3.4400291443 
8.5735816956 -2.8595385551 4.0111608505 7.792678833 -4.1547574997 2.6348953247 9.3544845581 -3.4669270515 3.4400291443 
11.502140999 -2.8595385551 2.6348953247 8.5735816956 -4.2083592415 1.8297615051 8.5735816956 -4.0302872658 1.0246276855 
8.5735816956 -4.2083592415 1.8297615051 11.502140999 -2.8595385551 2.6348953247 9.3544845581 -3.4669270515 3.4400291443 
1.5454540253 -2.8308348656 -0.58563995361 2.3263568878 -3.3182759285 -0.58563995361 1.5454540253 -3.0253062248 0.21949386597 
1.5454540253 -3.0253062248 0.21949386597 2.3263568878 -3.3182759285 -0.58563995361 2.3263568878 -3.56727314 0.21949386597 
1.5454540253 -2.5434575081 1.0246276855 1.5454540253 -3.0253062248 0.21949386597 3.2569384575 -3.6367998123 1.0246276855 
3.2569384575 -3.6367998123 1.0246276855 1.5454540253 -3.0253062248 0.21949386597 2.3263568878 -3.56727314 0.21949386597 
1.5454540253 -2.5434575081 1.0246276855 3.2569384575 -3.6367998123 1.0246276855 3.3315563202 -2.8595385551 1.8297615051 
5.4499692917 -3.6367998123 2.3796472549 3.3315563202 -2.8595385551 1.8297615051 3.2569384575 -3.6367998123 1.0246276855 
5.4499692917 -3.5861973763 -0.58563995361 7.792678833 -2.082277298 -1.2696628571 7.792678833 -3.8160662651 0.21949386597 
8.5735816956 -2.8595385551 4.0111608505 7.792678833 -2.082277298 4.2547531128 5.4499692917 -3.6367998123 2.3796472549 
7.792678833 -3.8160662651 0.21949386597 7.792678833 -2.082277298 -1.2696628571 8.5735816956 -3.5432796478 0.21949386597 
8.5735816956 -3.5432796478 0.21949386597 10.135387421 -2.5879430771 0.21949386597 8.5735816956 -4.0302872658 1.0246276855 
8.5735816956 -2.8595385551 4.0111608505 9.3544845581 -3.4669270515 3.4400291443 10.916291237 -2.082277298 4.5906085968 
8.5735816956 -4.0302872658 1.0246276855 10.135387421 -2.5879430771 0.21949386597 10.916291237 -2.693210125 1.0246276855 
10.916291237 -2.693210125 1.0246276855 11.502140999 -2.8595385551 2.6348953247 8.5735816956 -4.0302872658 1.0246276855 
11.502140999 -2.8595385551 2.6348953247 11.697194099 -2.6483607292 3.4400291443 9.3544845581 -3.4669270515 3.4400291443 
10.916291237 -2.082277298 4.5906085968 9.3544845581 -3.4669270515 3.4400291443 11.697194099 -2.6483607292 3.4400291443 
2.3263568878 -3.3182759285 -0.58563995361 1.5454540253 -2.8308348656 -0.58563995361 3.8881630898 -2.082277298 -1.6877150536 
3.8881630898 -3.6121635437 -0.58563995361 2.3263568878 -3.3182759285 -0.58563995361 3.8881630898 -2.082277298 -1.6877150536 
3.3315563202 -2.8595385551 1.8297615051 5.4499692917 -3.6367998123 2.3796472549 5.4499692917 -2.082277298 3.32970047 
3.8881630898 -2.082277298 -1.6877150536 6.2308721542 -1.3050160408 -1.8972563744 5.4499692917 -3.5861973763 -0.58563995361 
3.8881630898 -3.6121635437 -0.58563995361 3.8881630898 -2.082277298 -1.6877150536 5.4499692917 -3.5861973763 -0.58563995361 
7.792678833 -2.082277298 -1.2696628571 5.4499692917 -3.5861973763 -0.58563995361 6.2308721542 -1.3050160408 -1.8972563744 
5.4499692917 -2.082277298 3.32970047 5.4499692917 -3.6367998123 2.3796472549 7.792678833 -2.082277298 4.2547531128 
8.5735816956 -3.5432796478 0.21949386597 7.792678833 -2.082277298 -1.2696628571 9.3544845581 -0.52775478363 -1.5660643578 
8.5735816956 -3.5432796478 0.21949386597 9.3544845581 -0.52775478363 -1.5660643578 10.135387421 -2.5879430771 0.21949386597 
13.783084869 -1.3050160408 2.6348953247 11.697194099 -2.6483607292 3.4400291443 11.502140999 -2.8595385551 2.6348953247 
0.54522752762 -0.52775478363 -0.58563995361 1.5454540253 -3.0253062248 0.21949386597 0.14787006378 0.24950695038 0.21949386597 
0.54522752762 -0.52775478363 -0.58563995361 1.5454540253 -2.8308348656 -0.58563995361 1.5454540253 -3.0253062248 0.21949386597 
1.5454540253 -3.0253062248 0.21949386597 1.5454540253 -2.5434575081 1.0246276855 0.14787006378 0.24950695038 0.21949386597 
1.5454540253 -2.5434575081 1.0246276855 1.5454540253 -0.52775478363 1.8437280655 0.14787006378 0.24950695038 0.21949386597 
1.5454540253 -2.8308348656 -0.58563995361 2.3263568878 -0.52775478363 -1.9389929771 3.8881630898 -2.082277298 -1.6877150536 
1.5454540253 -0.52775478363 1.8437280655 1.5454540253 -2.5434575081 1.0246276855 3.3315563202 -2.8595385551 1.8297615051 
1.5454540253 -0.52775478363 1.8437280655 3.3315563202 -2.8595385551 1.8297615051 5.4499692917 -2.082277298 3.32970047 
7.792678833 -2.082277298 4.2547531128 7.0117759705 -0.52775478363 4.3816461563 5.4499692917 -2.082277298 3.32970047 
10.916291237 -1.3050160408 5.100317955 7.792678833 -2.082277298 4.2547531128 8.5735816956 -2.8595385551 4.0111608505 
10.916291237 -2.082277298 4.5906085968 10.916291237 -1.3050160408 5.100317955 8.5735816956 -2.8595385551 4.0111608505 
10.916291237 -2.693210125 1.0246276855 10.135387421 -2.5879430771 0.21949386597 13.259000778 -0.76965713501 1.0246276855 
13.259000778 -0.76965713501 1.0246276855 13.783084869 -1.3050160408 2.6348953247 10.916291237 -2.693210125 1.0246276855 
10.916291237 -2.693210125 1.0246276855 13.783084869 -1.3050160408 2.6348953247 11.502140999 -2.8595385551 2.6348953247 
10.916291237 -2.082277298 4.5906085968 11.697194099 -2.6483607292 3.4400291443 13.259000778 -0.79758167267 5.0502967834 
14.039903641 -0.98462057114 4.2451629639 11.697194099 -2.6483607292 3.4400291443 13.783084869 -1.3050160408 2.6348953247 
11.697194099 -2.6483607292 3.4400291443 14.039903641 -0.98462057114 4.2451629639 13.259000778 -0.79758167267 5.0502967834 
1.5454540253 0.24950695038 -1.7193198204 2.3263568878 -0.52775478363 -1.9389929771 1.5454540253 -2.8308348656 -0.58563995361 
1.5454540253 0.24950695038 -1.7193198204 1.5454540253 -2.8308348656 -0.58563995361 0.54522752762 -0.52775478363 -0.58563995361 
3.1072597504 -0.52775478363 2.4563541412 1.5454540253 -0.52775478363 1.8437280655 5.4499692917 -2.082277298 3.32970047 
3.8881630898 -2.082277298 -1.6877150536 2.3263568878 -0.52775478363 -1.9389929771 5.4499692917 0.24950695038 -2.4010472298 
6.2308721542 -1.3050160408 -1.8972563744 3.8881630898 -2.082277298 -1.6877150536 5.4499692917 0.24950695038 -2.4010472298 
5.4499692917 -2.082277298 3.32970047 7.0117759705 -0.52775478363 4.3816461563 3.1072597504 -0.52775478363 2.4563541412 
10.916291237 -1.3050160408 5.100317955 9.3544845581 0.24950695038 5.2395296097 7.792678833 -2.082277298 4.2547531128 
10.916291237 -1.3050160408 5.100317955 10.916291237 -2.082277298 4.5906085968 12.478097916 0.24950695038 5.6922960281 
10.135387421 -2.5879430771 0.21949386597 11.697194099 1.0267686844 -1.2629089355 13.259000778 -0.76965713501 1.0246276855 
12.478097916 0.24950695038 5.6922960281 10.916291237 -2.082277298 4.5906085968 13.259000778 -0.79758167267 5.0502967834 
13.259000778 -0.76965713501 1.0246276855 15.432460785 1.0267686844 1.8297615051 13.783084869 -1.3050160408 2.6348953247 
14.746765137 -0.52775478363 3.4400291443 13.783084869 -1.3050160408 2.6348953247 15.432460785 1.0267686844 1.8297615051 
14.039903641 -0.98462057114 4.2451629639 13.783084869 -1.3050160408 2.6348953247 14.746765137 -0.52775478363 3.4400291443 
1.5454540253 -0.52775478363 1.8437280655 1.5454540253 1.0267686844 1.8003606796 0.14787006378 0.24950695038 0.21949386597 
3.1072597504 -0.52775478363 2.4563541412 1.5454540253 1.0267686844 1.8003606796 1.5454540253 -0.52775478363 1.8437280655 
6.2308721542 -1.3050160408 -1.8972563744 5.4499692917 0.24950695038 -2.4010472298 7.792678833 2.5812911987 -2.7274031639 
7.792678833 -2.082277298 -1.2696628571 6.2308721542 -1.3050160408 -1.8972563744 7.792678833 2.5812911987 -2.7274031639 
7.792678833 -2.082277298 4.2547531128 9.3544845581 0.24950695038 5.2395296097 7.0117759705 -0.52775478363 4.3816461563 
7.792678833 2.5812911987 -2.7274031639 9.3544845581 -0.52775478363 -1.5660643578 7.792678833 -2.082277298 -1.2696628571 
11.697194099 1.0267686844 5.8007116318 9.3544845581 0.24950695038 5.2395296097 10.916291237 -1.3050160408 5.100317955 
11.697194099 1.0267686844 -1.2629089355 10.135387421 -2.5879430771 0.21949386597 9.3544845581 -0.52775478363 -1.5660643578 
12.478097916 0.24950695038 5.6922960281 11.697194099 1.0267686844 5.8007116318 10.916291237 -1.3050160408 5.100317955 
[...]
CELL_DATA 900
FIELD FieldData 1
GroupIds 1 900 float
0 0 0 0 0 0 0 0 0 
0 0 0 0 0 0 0 0 0 
0 0 0 0 0 0 0 0 0 
0 0 0 0 0 0 0 0 0 
0 0 0 0 0 0 0 0 0 
0 0 0 0 0 0 0 0 0 
0 0 0 0 0 0 0 0 0 
0 0 0 0 0 0 0 0 0 
0 0 0 0 0 0 0 0 0 
0 0 0 0 0 0 0 0 0 
0 0 0 0 0 0 0 0 0 
0 0 0 0 0 0 0 0 0 
0 0 0 0 0 0 0 0 0 
0 0 0 0 0 0 0 0 0 
0 0 0 0 0 0 0 0 0 
0 0 0 0 0 0 0 0 0 
0 0 0 0 0 0 0 0 0 
0 0 0 0 0 0 0 0 0 
0 0 0 0 0 0 0 0 0 
0 0 0 0 0 0 0 0 0 
0 0 0 0 0 0 0 0 0 
0 0 0 0 0 0 0 0 0 
0 0 0 0 0 0 0 0 0 
0 0 0 0 0 0 0 0 0 
0 0 0 0 0 0 0 0 0 
0 0 0 0 0 0 0 0 0 
0 0 0 0 0 0 0 0 0 
0 0 0 0 0 0 0 0 0 
0 0 0 0 0 0 0 0 0 
0 0 0 0 0 0 0 0 0 
0 0 0 0 0 0 0 0 0 
0 0 0 0 0 0 0 0 0 
0 0 0 0 0 0 0 0 0 
0 0 0 0 0 0 0 0 0 
0 0 0 0 0 0 0 0 0 
0 0 0 0 0 0 0 0 0 
0 0 0 0 0 0 0 0 0 
0 0 0 0 0 0 0 0 0 
0 0 0 0 0 0 0 0 0 
0 0 0 0 0 0 0 0 0 
0 0 0 0 0 0 0 0 0 
0 0 0 0 0 0 0 0 0 
0 0 0 0 0 0 0 0 0 
0 0 0 0 0 0 0 0 0 
0 0 0 0 0 0 0 0 0 
0 0 0 0 0 0 0 0 0 
0 0 0 0 0 0 0 0 0 
0 0 0 0 0 0 0 0 0 
0 0 0 0 0 0 0 0 0 
0 0 0 0 0 0 0 0 0 
0 0 0 0 0 0 0 0 0 
0 0 0 0 0 0 0 0 0 
0 0 0 0 0 0 0 0 0 
0 0 0 0 0 0 0 0 0 
0 0 0 0 0 0 0 0 0 
0 0 0 0 0 0 0 0 0 
0 0 0 0 0 0 0 0 0 
0 0 0 0 0 0 0 0 0 
0 0 0 0 0 0 0 0 0 
0 0 0 0 0 0 0 0 0 
0 0 0 0 0 0 0 0 0 
0 0 0 0 0 0 0 0 0 
0 0 0 0 0 0 0 0 0 
0 0 0 0 0 0 0 0 0 
0 0 0 0 0 0 0 0 0 
0 0 0 0 0 0 0 0 0 
0 0 0 0 0 0 0 0 0 
0 0 0 0 0 0 0 0 0 
0 0 0 0 0 0 0 0 0 
0 0 0 0 0 0 0 0 0 
0 0 0 0 0 0 0 0 0 
0 0 0 0 0 0 0 0 0 
0 0 0 0 0 0 0 0 0 
0 0 0 0 0 0 0 0 0 
0 0 0 0 0 0 0 0 0 
0 0 0 0 0 0 0 0 0 
0 0 0 0 0 0 0 0 0 
0 0 0 0 0 0 0 0 0 
0 0 0 0 0 0 0 0 0 
0 0 0 0 0 0 0 0 0 
0 0 0 0 0 0 0 0 0 
0 0 0 0 0 0 0 0 0 
0 0 0 0 0 0 0 0 0 
0 0 0 0 0 0 0 0 0 
0 0 0 0 0 0 0 0 0 
0 0 0 0 0 0 0 0 0 
0 0 0 0 0 0 0 0 0 
0 0 0 0 0 0 0 0 0 
0 0 0 0 0 0 0 0 0 
0 0 0 0 0 0 0 0 0 
0 0 0 0 0 0 0 0 0 
0 0 0 0 0 0 0 0 0 
0 0 0 0 0 0 0 0 0 
0 0 0 0 0 0 0 0 0 
0 0 0 0 0 0 0 0 0 
0 0 0 0 0 0 0 0 0 
0 0 0 0 0 0 0 0 0 
0 0 0 0 0 0 0 0 0 
0 0 0 0 0 0 0 0 0 
0 0 0 0 0 0 0 0 0 

POINT_DATA 2700
NORMALS Normals float
-0.176935 -0.940284 -0.290794 -0.176935 -0.940284 -0.290794 -0.176935 -0.940284 -0.290794 
-0.045833 -0.998396 -0.0332415 -0.045833 -0.998396 -0.0332415 -0.045833 -0.998396 -0.0332415 
-0.231774 -0.967015 -0.10565 -0.231774 -0.967015 -0.10565 -0.231774 -0.967015 -0.10565 
-0.231226 -0.964729 0.125824 -0.231226 -0.964729 0.125824 -0.231226 -0.964729 0.125824 
-0.299114 -0.822299 0.484102 -0.299114 -0.822299 0.484102 -0.299114 -0.822299 0.484102 
0.0149743 -0.900668 -0.43425 0.0149743 -0.900668 -0.43425 0.0149743 -0.900668 -0.43425 
0.0690653 -0.888062 -0.454506 0.0690653 -0.888062 -0.454506 0.0690653 -0.888062 -0.454506 
-0.143096 -0.758769 0.635447 -0.143096 -0.758769 0.635447 -0.143096 -0.758769 0.635447 
-0.00963963 -0.991556 0.129323 -0.00963963 -0.991556 0.129323 -0.00963963 -0.991556 0.129323 
-0.348154 -0.575987 0.739613 -0.348154 -0.575987 0.739613 -0.348154 -0.575987 0.739613 
0.286377 -0.819809 -0.495884 0.286377 -0.819809 -0.495884 0.286377 -0.819809 -0.495884 
0.125621 -0.921672 -0.367069 0.125621 -0.921672 -0.367069 0.125621 -0.921672 -0.367069 
0.131918 -0.967871 -0.214065 0.131918 -0.967871 -0.214065 0.131918 -0.967871 -0.214065 
0.027921 -0.995243 0.0933389 0.027921 -0.995243 0.0933389 0.027921 -0.995243 0.0933389 
0.24905 -0.919938 0.302799 0.24905 -0.919938 0.302799 0.24905 -0.919938 0.302799 
-0.0451961 -0.714554 0.698119 -0.0451961 -0.714554 0.698119 -0.0451961 -0.714554 0.698119 
0.453674 -0.87014 -0.192449 0.453674 -0.87014 -0.192449 0.453674 -0.87014 -0.192449 
0.348419 -0.90412 0.247327 0.348419 -0.90412 0.247327 0.348419 -0.90412 0.247327 
-0.518735 -0.831037 -0.200728 -0.518735 -0.831037 -0.200728 -0.518735 -0.831037 -0.200728 
-0.552607 -0.796234 -0.246245 -0.552607 -0.796234 -0.246245 -0.552607 -0.796234 -0.246245 
-0.480679 -0.75244 0.450313 -0.480679 -0.75244 0.450313 -0.480679 -0.75244 0.450313 
-0.491482 -0.70816 0.506907 -0.491482 -0.70816 0.506907 -0.491482 -0.70816 0.506907 
-0.407477 -0.637852 0.653534 -0.407477 -0.637852 0.653534 -0.407477 -0.637852 0.653534 
-0.404315 -0.639014 0.654363 -0.404315 -0.639014 0.654363 -0.404315 -0.639014 0.654363 
0.193077 -0.639301 -0.744322 0.193077 -0.639301 -0.744322 0.193077 -0.639301 -0.744322 
-0.283155 -0.534127 0.796575 -0.283155 -0.534127 0.796575 -0.283155 -0.534127 0.796575 
0.221929 -0.635313 -0.739679 0.221929 -0.635313 -0.739679 0.221929 -0.635313 -0.739679 
0.463714 -0.75809 -0.458552 0.463714 -0.75809 -0.458552 0.463714 -0.75809 -0.458552 
0.0339583 -0.661115 0.749515 0.0339583 -0.661115 0.749515 0.0339583 -0.661115 0.749515 
0.426112 -0.746597 -0.510902 0.426112 -0.746597 -0.510902 0.426112 -0.746597 -0.510902 
0.478545 -0.838465 -0.260712 0.478545 -0.838465 -0.260712 0.478545 -0.838465 -0.260712 
0.325312 -0.931031 0.165389 0.325312 -0.931031 0.165389 0.325312 -0.931031 0.165389 
0.271708 -0.777618 0.566996 0.271708 -0.777618 0.566996 0.271708 -0.777618 0.566996 
-0.268264 -0.429771 -0.862167 -0.268264 -0.429771 -0.862167 -0.268264 -0.429771 -0.862167 
-0.109327 -0.580996 -0.806531 -0.109327 -0.580996 -0.806531 -0.109327 -0.580996 -0.806531 
-0.381583 -0.482019 0.788703 -0.381583 -0.482019 0.788703 -0.381583 -0.482019 0.788703 
0.0969429 -0.520839 -0.848133 0.0969429 -0.520839 -0.848133 0.0969429 -0.520839 -0.848133 
0.00971728 -0.584472 -0.811356 0.00971728 -0.584472 -0.811356 0.00971728 -0.584472 -0.811356 
0.0841355 -0.518176 -0.851126 0.0841355 -0.518176 -0.851126 0.0841355 -0.518176 -0.851126 
-0.319289 -0.494181 0.808603 -0.319289 -0.494181 0.808603 -0.319289 -0.494181 0.808603 
0.398501 -0.541511 -0.740245 0.398501 -0.541511 -0.740245 0.398501 -0.541511 -0.740245 
0.332011 -0.54278 -0.771465 0.332011 -0.54278 -0.771465 0.332011 -0.54278 -0.771465 
0.561365 -0.823688 0.0800472 0.561365 -0.823688 0.0800472 0.561365 -0.823688 0.0800472 
-0.917169 -0.391418 -0.0747823 -0.917169 -0.391418 -0.0747823 -0.917169 -0.391418 -0.0747823 
-0.913015 -0.396522 -0.0957756 -0.913015 -0.396522 -0.0957756 -0.913015 -0.396522 -0.0957756 
-0.895372 -0.382116 0.228685 -0.895372 -0.382116 0.228685 -0.895372 -0.382116 0.228685 
-0.789428 -0.23109 0.568683 -0.789428 -0.23109 0.568683 -0.789428 -0.23109 0.568683 
-0.274777 -0.416172 -0.866775 -0.274777 -0.416172 -0.866775 -0.274777 -0.416172 -0.866775 
-0.435827 -0.338829 0.833816 -0.435827 -0.338829 0.833816 -0.435827 -0.338829 0.833816 
-0.451877 -0.351041 0.820108 -0.451877 -0.351041 0.820108 -0.451877 -0.351041 0.820108 
-0.355415 -0.252013 0.900094 -0.355415 -0.252013 0.900094 -0.355415 -0.252013 0.900094 
-0.138281 -0.420021 0.896917 -0.138281 -0.420021 0.896917 -0.138281 -0.420021 0.896917 
-0.0248854 -0.54821 0.835971 -0.0248854 -0.54821 0.835971 -0.0248854 -0.54821 0.835971 
0.51583 -0.628233 -0.582445 0.51583 -0.628233 -0.582445 0.51583 -0.628233 -0.582445 
0.575745 -0.701205 -0.420511 0.575745 -0.701205 -0.420511 0.575745 -0.701205 -0.420511 
0.540851 -0.793588 -0.278745 0.540851 -0.793588 -0.278745 0.540851 -0.793588 -0.278745 
0.302231 -0.75797 0.578046 0.302231 -0.75797 0.578046 0.302231 -0.75797 0.578046 
0.560179 -0.824987 0.0748061 0.560179 -0.824987 0.0748061 0.560179 -0.824987 0.0748061 
0.362506 -0.766796 0.529729 0.362506 -0.766796 0.529729 0.362506 -0.766796 0.529729 
-0.519371 -0.295151 -0.80196 -0.519371 -0.295151 -0.80196 -0.519371 -0.295151 -0.80196 
-0.622438 -0.270325 -0.734504 -0.622438 -0.270325 -0.734504 -0.622438 -0.270325 -0.734504 
-0.365031 -0.0272938 0.930595 -0.365031 -0.0272938 0.930595 -0.365031 -0.0272938 0.930595 
-0.0833323 -0.24006 -0.967175 -0.0833323 -0.24006 -0.967175 -0.0833323 -0.24006 -0.967175 
0.0147733 -0.301538 -0.95334 0.0147733 -0.301538 -0.95334 0.0147733 -0.301538 -0.95334 
-0.436518 -0.160495 0.885265 -0.436518 -0.160495 0.885265 -0.436518 -0.160495 0.885265 
-0.187523 -0.272902 0.943589 -0.187523 -0.272902 0.943589 -0.187523 -0.272902 0.943589 
0.223094 -0.534559 0.815154 0.223094 -0.534559 0.815154 0.223094 -0.534559 0.815154 
0.478036 -0.502098 -0.72068 0.478036 -0.502098 -0.72068 0.478036 -0.502098 -0.72068 
0.0871373 -0.472677 0.876917 0.0871373 -0.472677 0.876917 0.0871373 -0.472677 0.876917 
0.66539 -0.616169 -0.421416 0.66539 -0.616169 -0.421416 0.66539 -0.616169 -0.421416 
0.734216 -0.617086 -0.283074 0.734216 -0.617086 -0.283074 0.734216 -0.617086 -0.283074 
0.592936 -0.802611 0.0651295 0.592936 -0.802611 0.0651295 0.592936 -0.802611 0.0651295 
-0.753532 0.018333 0.657155 -0.753532 0.018333 0.657155 -0.753532 0.018333 0.657155 
-0.365044 0.0259622 0.930628 -0.365044 0.0259622 0.930628 -0.365044 0.0259622 0.930628 
0.117349 -0.25233 -0.960499 0.117349 -0.25233 -0.960499 0.117349 -0.25233 -0.960499 
0.228824 -0.290429 -0.929134 0.228824 -0.290429 -0.929134 0.228824 -0.290429 -0.929134 
-0.272676 -0.213553 0.938106 -0.272676 -0.213553 0.938106 -0.272676 -0.213553 0.938106 
0.115046 -0.296364 -0.948121 0.115046 -0.296364 -0.948121 0.115046 -0.296364 -0.948121 
-0.151007 -0.237644 0.959543 -0.151007 -0.237644 0.959543 -0.151007 -0.237644 0.959543 
0.426296 -0.494756 -0.75729 0.426296 -0.494756 -0.75729 0.426296 -0.494756 -0.75729 
-0.115454 -0.250084 0.961316 -0.115454 -0.250084 0.961316 -0.115454 -0.250084 0.961316 
0.455276 -0.522336 -0.721033 0.455276 -0.522336 -0.721033 0.455276 -0.522336 -0.721033 
0.10431 -0.462154 0.880643 0.10431 -0.462154 0.880643 0.10431 -0.462154 0.880643 
0.532293 -0.549551 0.643939 0.532293 -0.549551 0.643939 0.532293 -0.549551 0.643939 
0.364994 -0.43263 0.824385 0.364994 -0.43263 0.824385 0.364994 -0.43263 0.824385 
0.642582 -0.529032 -0.554268 0.642582 -0.529032 -0.554268 0.642582 -0.529032 -0.554268 
0.781999 -0.580364 -0.227277 0.781999 -0.580364 -0.227277 0.781999 -0.580364 -0.227277 
-0.818931 0.154007 -0.552842 -0.818931 0.154007 -0.552842 -0.818931 0.154007 -0.552842 
-0.372546 0.0172537 0.927853 -0.372546 0.0172537 0.927853 -0.372546 0.0172537 0.927853 
-0.442251 -0.00129707 0.89689 -0.442251 -0.00129707 0.89689 -0.442251 -0.00129707 0.89689 
-0.450763 0.0165961 0.892489 -0.450763 0.0165961 0.892489 -0.450763 0.0165961 0.892489 
0.136623 -0.28568 -0.948536 0.136623 -0.28568 -0.948536 0.136623 -0.28568 -0.948536 
0.029734 -0.108722 0.993627 0.029734 -0.108722 0.993627 0.029734 -0.108722 0.993627 
0.481971 -0.430822 -0.762952 0.481971 -0.430822 -0.762952 0.481971 -0.430822 -0.762952 
0.115408 -0.193266 0.974335 0.115408 -0.193266 0.974335 0.115408 -0.193266 0.974335 
0.730506 -0.617946 0.290695 0.730506 -0.617946 0.290695 0.730506 -0.617946 0.290695 
0.793092 -0.588597 0.156714 0.793092 -0.588597 0.156714 0.793092 -0.588597 0.156714 
0.638317 -0.539962 0.548628 0.638317 -0.539962 0.548628 0.638317 -0.539962 0.548628 
-0.786853 0.133865 -0.602448 -0.786853 0.133865 -0.602448 -0.786853 0.133865 -0.602448 
-0.356611 0.289813 0.888165 -0.356611 0.289813 0.888165 -0.356611 0.289813 0.888165 
-0.2405 0.032548 -0.970103 -0.2405 0.032548 -0.970103 -0.2405 0.032548 -0.970103 
-0.35571 0.0416143 0.93367 -0.35571 0.0416143 0.93367 -0.35571 0.0416143 0.93367 
-0.317801 -0.00137121 0.948156 -0.317801 -0.00137121 0.948156 -0.317801 -0.00137121 0.948156 
0.153231 -0.242552 -0.957961 0.153231 -0.242552 -0.957961 0.153231 -0.242552 -0.957961 
0.336333 -0.33524 -0.880054 0.336333 -0.33524 -0.880054 0.336333 -0.33524 -0.880054 
-0.231992 -0.00305939 0.972713 -0.231992 -0.00305939 0.972713 -0.231992 -0.00305939 0.972713 
0.0393728 -0.137698 0.989691 0.0393728 -0.137698 0.989691 0.0393728 -0.137698 0.989691 
0.302835 -0.275651 0.912309 0.302835 -0.275651 0.912309 0.302835 -0.275651 0.912309 
0.307984 -0.280929 0.908969 0.307984 -0.280929 0.908969 0.307984 -0.280929 0.908969 
0.664729 -0.48137 0.571329 0.664729 -0.48137 0.571329 0.664729 -0.48137 0.571329 
0.518077 -0.247391 0.818776 0.518077 -0.247391 0.818776 0.518077 -0.247391 0.818776 
-0.888654 0.358077 -0.286489 -0.888654 0.358077 -0.286489 -0.888654 0.358077 -0.286489 
-0.973667 0.143048 -0.177512 -0.973667 0.143048 -0.177512 -0.973667 0.143048 -0.177512 
-0.640619 0.403236 0.653459 -0.640619 0.403236 0.653459 -0.640619 0.403236 0.653459 
-0.782568 0.31533 0.5368 -0.782568 0.31533 0.5368 -0.782568 0.31533 0.5368 
-0.367895 0.201699 -0.907728 -0.367895 0.201699 -0.907728 -0.367895 0.201699 -0.907728 
-0.309913 0.161424 -0.936961 -0.309913 0.161424 -0.936961 -0.309913 0.161424 -0.936961 
-0.124257 -0.088167 -0.988325 -0.124257 -0.088167 -0.988325 -0.124257 -0.088167 -0.988325 
-0.471555 0.214717 0.855297 -0.471555 0.214717 0.855297 -0.471555 0.214717 0.855297 
-0.0502512 -0.0887434 -0.994786 -0.0502512 -0.0887434 -0.994786 -0.0502512 -0.0887434 -0.994786 
-0.49933 0.0753031 0.863134 -0.49933 0.0753031 0.863134 -0.49933 0.0753031 0.863134 
0.348486 -0.314272 -0.883058 0.348486 -0.314272 -0.883058 0.348486 -0.314272 -0.883058 
0.34687 -0.311021 -0.884843 0.34687 -0.311021 -0.884843 0.34687 -0.311021 -0.884843 
0.319229 -0.10213 0.942158 0.319229 -0.10213 0.942158 0.319229 -0.10213 0.942158 
0.136093 -0.0405563 0.989866 0.136093 -0.0405563 0.989866 0.136093 -0.0405563 0.989866 
0.520536 -0.228626 0.822662 0.520536 -0.228626 0.822662 0.520536 -0.228626 0.822662 
0.830413 -0.502162 -0.241347 0.830413 -0.502162 -0.241347 0.830413 -0.502162 -0.241347 
-0.497863 0.416241 0.760839 -0.497863 0.416241 0.760839 -0.497863 0.416241 0.760839 
-0.297094 0.166632 -0.940196 -0.297094 0.166632 -0.940196 -0.297094 0.166632 -0.940196 
-0.478481 0.294909 0.827094 -0.478481 0.294909 0.827094 -0.478481 0.294909 0.827094 
-0.358741 0.217718 0.907691 -0.358741 0.217718 0.907691 -0.358741 0.217718 0.907691 
-0.164376 0.0675621 0.984081 -0.164376 0.0675621 0.984081 -0.164376 0.0675621 0.984081 
0.461283 -0.394108 -0.794919 0.461283 -0.394108 -0.794919 0.461283 -0.394108 -0.794919 
0.607395 -0.43745 -0.663105 0.607395 -0.43745 -0.663105 0.607395 -0.43745 -0.663105 
0.66472 -0.478736 -0.57355 0.66472 -0.478736 -0.57355 0.66472 -0.478736 -0.57355 
0.281697 -0.103404 0.953915 0.281697 -0.103404 0.953915 0.281697 -0.103404 0.953915 
0.918119 -0.393757 0.0448675 0.918119 -0.393757 0.0448675 0.918119 -0.393757 0.0448675 
0.891756 -0.416798 0.17621 0.891756 -0.416798 0.17621 0.891756 -0.416798 0.17621 
0.792424 -0.370371 0.484655 0.792424 -0.370371 0.484655 0.792424 -0.370371 0.484655 
-0.422295 0.568775 -0.705806 -0.422295 0.568775 -0.705806 -0.422295 0.568775 -0.705806 
-0.591833 0.797119 -0.119726 -0.591833 0.797119 -0.119726 -0.591833 0.797119 -0.119726 
-0.571741 0.816205 -0.0831979 -0.571741 0.816205 -0.0831979 -0.571741 0.816205 -0.0831979 
-0.438917 0.626588 0.644003 -0.438917 0.626588 0.644003 -0.438917 0.626588 0.644003 
-0.615502 0.549606 0.564881 -0.615502 0.549606 0.564881 -0.615502 0.549606 0.564881 
-0.0504127 -0.0385903 -0.997983 -0.0504127 -0.0385903 -0.997983 -0.0504127 -0.0385903 -0.997983 
-0.280662 0.322351 0.904057 -0.280662 0.322351 0.904057 -0.280662 0.322351 0.904057 
-0.396871 0.270959 0.876969 -0.396871 0.270959 0.876969 -0.396871 0.270959 0.876969 
0.245775 -0.237922 -0.939674 0.245775 -0.237922 -0.939674 0.245775 -0.237922 -0.939674 
-0.164428 0.0627184 0.984393 -0.164428 0.0627184 0.984393 -0.164428 0.0627184 0.984393 
0.661717 -0.199472 0.722732 0.661717 -0.199472 0.722732 0.661717 -0.199472 0.722732 
0.753266 -0.45551 -0.474448 0.753266 -0.45551 -0.474448 0.753266 -0.45551 -0.474448 
-0.577014 0.592754 -0.56187 -0.577014 0.592754 -0.56187 -0.577014 0.592754 -0.56187 
-0.185306 0.0987481 -0.977707 -0.185306 0.0987481 -0.977707 -0.185306 0.0987481 -0.977707 
-0.395772 0.263577 0.879711 -0.395772 0.263577 0.879711 -0.395772 0.263577 0.879711 
0.215172 -0.189209 -0.958071 0.215172 -0.189209 -0.958071 0.215172 -0.189209 -0.958071 
-0.230991 0.155723 0.960413 -0.230991 0.155723 0.960413 -0.230991 0.155723 0.960413 
0.0332043 0.0635488 0.997426 0.0332043 0.0635488 0.997426 0.0332043 0.0635488 0.997426 
0.366095 -0.00913881 0.930533 0.366095 -0.00913881 0.930533 0.366095 -0.00913881 0.930533 
0.0749919 0.147551 0.986207 0.0749919 0.147551 0.986207 0.0749919 0.147551 0.986207 
0.639485 -0.0883375 0.763711 0.639485 -0.0883375 0.763711 0.639485 -0.0883375 0.763711 
0.919196 -0.391231 0.0449202 0.919196 -0.391231 0.0449202 0.919196 -0.391231 0.0449202 
-0.69621 0.714138 -0.072794 -0.69621 0.714138 -0.072794 -0.69621 0.714138 -0.072794 
-0.613284 0.563962 0.553018 -0.613284 0.563962 0.553018 -0.613284 0.563962 0.553018 
-0.583104 0.441497 -0.681961 -0.583104 0.441497 -0.681961 -0.583104 0.441497 -0.681961 
-0.651347 0.66812 -0.359671 -0.651347 0.66812 -0.359671 -0.651347 0.66812 -0.359671 
-0.419159 0.493404 -0.76214 -0.419159 0.493404 -0.76214 -0.419159 0.493404 -0.76214 
-0.451131 0.483865 0.749904 -0.451131 0.483865 0.749904 -0.451131 0.483865 0.749904 
0.100632 -0.076221 -0.992 0.100632 -0.076221 -0.992 0.100632 -0.076221 -0.992 
0.554 -0.00817582 0.832477 0.554 -0.00817582 0.832477 0.554 -0.00817582 0.832477 
0.901481 -0.424666 0.0836113 0.901481 -0.424666 0.0836113 0.901481 -0.424666 0.0836113 
0.850081 -0.117429 0.513393 0.850081 -0.117429 0.513393 0.850081 -0.117429 0.513393 
-0.628996 0.747427 0.213815 -0.628996 0.747427 0.213815 -0.628996 0.747427 0.213815 
-0.540728 0.740689 -0.398738 -0.540728 0.740689 -0.398738 -0.540728 0.740689 -0.398738 
-0.574006 0.786274 0.228671 -0.574006 0.786274 0.228671 -0.574006 0.786274 0.228671 
-0.465875 0.641598 0.609354 -0.465875 0.641598 0.609354 -0.465875 0.641598 0.609354 
-0.488185 0.489689 0.722412 -0.488185 0.489689 0.722412 -0.488185 0.489689 0.722412 
0.154069 -0.039743 -0.98726 0.154069 -0.039743 -0.98726 0.154069 -0.039743 -0.98726 
-0.0101532 -0.0402212 -0.999139 -0.0101532 -0.0402212 -0.999139 -0.0101532 -0.0402212 -0.999139 
-0.183284 0.246013 0.95178 -0.183284 0.246013 0.95178 -0.183284 0.246013 0.95178 
0.241823 -0.161864 -0.956725 0.241823 -0.161864 -0.956725 0.241823 -0.161864 -0.956725 
0.0319236 0.250124 0.967687 0.0319236 0.250124 0.967687 0.0319236 0.250124 0.967687 
0.0409238 0.24371 0.968984 0.0409238 0.24371 0.968984 0.0409238 0.24371 0.968984 
0.498399 -0.353326 -0.791681 0.498399 -0.353326 -0.791681 0.498399 -0.353326 -0.791681 
0.525751 0.0842102 0.84646 0.525751 0.0842102 0.84646 0.525751 0.0842102 0.84646 
0.757631 -0.446375 -0.476178 0.757631 -0.446375 -0.476178 0.757631 -0.446375 -0.476178 
0.850546 -0.400672 -0.340638 0.850546 -0.400672 -0.340638 0.850546 -0.400672 -0.340638 
-0.611288 0.75598 -0.23414 -0.611288 0.75598 -0.23414 -0.611288 0.75598 -0.23414 
-0.570785 0.78693 0.234404 -0.570785 0.78693 0.234404 -0.570785 0.78693 0.234404 
-0.465694 0.642043 0.609023 -0.465694 0.642043 0.609023 -0.465694 0.642043 0.609023 
-0.418177 0.51716 -0.746776 -0.418177 0.51716 -0.746776 -0.418177 0.51716 -0.746776 
-0.0433836 0.239097 -0.970026 -0.0433836 0.239097 -0.970026 -0.0433836 0.239097 -0.970026 
-0.301644 0.40371 -0.86373 -0.301644 0.40371 -0.86373 -0.301644 0.40371 -0.86373 
-0.35112 0.343073 0.871215 -0.35112 0.343073 0.871215 -0.35112 0.343073 0.871215 
-0.291288 0.350513 0.890108 -0.291288 0.350513 0.890108 -0.291288 0.350513 0.890108 
0.195632 -0.139253 -0.97074 0.195632 -0.139253 -0.97074 0.195632 -0.139253 -0.97074 
0.363286 -0.281708 -0.888067 0.363286 -0.281708 -0.888067 0.363286 -0.281708 -0.888067 
0.229221 0.23742 0.943975 0.229221 0.23742 0.943975 0.229221 0.23742 0.943975 
0.596911 -0.380764 -0.706198 0.596911 -0.380764 -0.706198 0.596911 -0.380764 -0.706198 
0.545747 -0.460893 -0.699813 0.545747 -0.460893 -0.699813 0.545747 -0.460893 -0.699813 
0.636407 -0.374954 -0.674089 0.636407 -0.374954 -0.674089 0.636407 -0.374954 -0.674089 
0.828306 -0.206169 0.520964 0.828306 -0.206169 0.520964 0.828306 -0.206169 0.520964 
0.799866 -0.197265 0.566835 0.799866 -0.197265 0.566835 0.799866 -0.197265 0.566835 
-0.580693 0.576999 0.574342 -0.580693 0.576999 0.574342 -0.580693 0.576999 0.574342 
-0.337171 0.571342 -0.748254 -0.337171 0.571342 -0.748254 -0.337171 0.571342 -0.748254 
-0.488762 0.485653 0.724744 -0.488762 0.485653 0.724744 -0.488762 0.485653 0.724744 
-0.577116 0.454615 0.678426 -0.577116 0.454615 0.678426 -0.577116 0.454615 0.678426 
-0.456237 0.449833 0.767788 -0.456237 0.449833 0.767788 -0.456237 0.449833 0.767788 