# vtk DataFile Version 4.2
3D Slicer output. SPACE=LPS
ASCII
DATASET POLYDATA
POINTS 2592 double
2.361562252 -3.3853650093 0.32178974152 2.361562252 -3.3794093132 -0.48635101318 4.7188830376 -3.8955879211 -0.48635101318 
2.361562252 -3.3853650093 0.32178974152 4.7188830376 -3.8955879211 -0.48635101318 4.7188830376 -4.1085882187 0.32178974152 
2.361562252 -3.3853650093 0.32178974152 4.7188830376 -4.1085882187 0.32178974152 2.361562252 -2.8545913696 1.0047597885 
2.361562252 -2.8545913696 1.0047597885 4.7188830376 -4.1085882187 0.32178974152 5.5046572685 -4.1908664703 1.1299304962 
5.5046572685 -4.1908664703 1.1299304962 5.5046572685 -3.6563591957 1.9380702972 2.361562252 -2.8545913696 1.0047597885 
4.7188830376 -3.8955879211 -0.48635101318 4.7188830376 -3.2294869423 -1.294491291 7.861978054 -3.6580796242 -0.48635101318 
7.861978054 -3.6580796242 -0.48635101318 4.7188830376 -4.1085882187 0.32178974152 4.7188830376 -3.8955879211 -0.48635101318 
7.861978054 -3.6580796242 -0.48635101318 7.861978054 -4.1673631668 0.32178974152 4.7188830376 -4.1085882187 0.32178974152 
7.861978054 -4.1673631668 0.32178974152 5.5046572685 -4.1908664703 1.1299304962 4.7188830376 -4.1085882187 0.32178974152 
7.861978054 -4.1673631668 0.32178974152 7.861978054 -4.3925237656 1.1299304962 5.5046572685 -4.1908664703 1.1299304962 
7.861978054 -4.3925237656 1.1299304962 7.861978054 -4.2096524239 1.9380702972 5.5046572685 -4.1908664703 1.1299304962 
5.5046572685 -4.1908664703 1.1299304962 7.861978054 -4.2096524239 1.9380702972 5.5046572685 -3.6563591957 1.9380702972 
5.5046572685 -3.6563591957 1.9380702972 7.861978054 -4.2096524239 1.9380702972 7.0762047768 -3.6359286308 2.593000412 
7.861978054 -4.1673631668 0.32178974152 7.861978054 -3.6580796242 -0.48635101318 10.219299316 -3.0681004524 0.32178974152 
10.219299316 -3.0681004524 0.32178974152 7.861978054 -4.3925237656 1.1299304962 7.861978054 -4.1673631668 0.32178974152 
10.219299316 -3.4761209488 1.9380702972 7.861978054 -4.2096524239 1.9380702972 7.861978054 -4.3925237656 1.1299304962 
1.6704163551 -2.8545913696 0.32178974152 1.5757884979 -2.8748617172 -0.48635101318 2.361562252 -3.3853650093 0.32178974152 
2.361562252 -3.3853650093 0.32178974152 1.5757884979 -2.8748617172 -0.48635101318 2.361562252 -3.3794093132 -0.48635101318 
2.361562252 -3.3853650093 0.32178974152 2.361562252 -2.8545913696 1.0047597885 1.6704163551 -2.8545913696 0.32178974152 
2.361562252 -3.3794093132 -0.48635101318 1.5757884979 -2.2703104019 -1.294491291 4.7188830376 -3.2294869423 -1.294491291 
2.361562252 -3.3794093132 -0.48635101318 4.7188830376 -3.2294869423 -1.294491291 4.7188830376 -3.8955879211 -0.48635101318 
4.7188830376 -3.2294869423 -1.294491291 5.5046572685 -2.0732541084 -2.0670962334 7.861978054 -3.6580796242 -0.48635101318 
7.0762047768 -2.8545913696 3.1355390549 5.5046572685 -3.6563591957 1.9380702972 7.0762047768 -3.6359286308 2.593000412 
5.5046572685 -2.0732541084 -2.0670962334 9.4335269928 -1.2919168472 -1.7157649994 7.861978054 -3.6580796242 -0.48635101318 
7.0762047768 -3.6359286308 2.593000412 7.861978054 -4.2096524239 1.9380702972 10.219299316 -2.4952745438 3.554350853 
7.0762047768 -2.8545913696 3.1355390549 7.0762047768 -3.6359286308 2.593000412 10.219299316 -2.4952745438 3.554350853 
7.861978054 -4.3925237656 1.1299304962 10.219299316 -3.0681004524 0.32178974152 11.114517212 -2.8545913696 1.1299304962 
11.114517212 -2.8545913696 1.1299304962 10.219299316 -3.4761209488 1.9380702972 7.861978054 -4.3925237656 1.1299304962 
7.861978054 -4.2096524239 1.9380702972 10.219299316 -3.4761209488 1.9380702972 10.219299316 -2.4952745438 3.554350853 
2.361562252 -3.3794093132 -0.48635101318 1.5757884979 -2.8748617172 -0.48635101318 1.5757884979 -2.2703104019 -1.294491291 
1.6704163551 -2.8545913696 0.32178974152 2.361562252 -2.8545913696 1.0047597885 1.7889513969 -2.0732541084 1.1299304962 
2.361562252 -2.8545913696 1.0047597885 2.361562252 -1.2919168472 1.7225189209 1.7889513969 -2.0732541084 1.1299304962 
2.361562252 -1.2919168472 1.7225189209 5.5046572685 -3.6563591957 1.9380702972 4.7188830376 -2.0732541084 2.4906511307 
2.361562252 -1.2919168472 1.7225189209 2.361562252 -2.8545913696 1.0047597885 5.5046572685 -3.6563591957 1.9380702972 
4.7188830376 -2.0732541084 2.4906511307 5.5046572685 -3.6563591957 1.9380702972 7.0762047768 -2.8545913696 3.1355390549 
10.219299316 -2.4952745438 3.554350853 8.6477527618 -1.2919168472 4.0343332291 7.0762047768 -2.8545913696 3.1355390549 
8.6477527618 -1.2919168472 4.0343332291 10.219299316 -2.4952745438 3.554350853 10.219299316 -1.2919168472 4.2965583801 
10.219299316 -3.0681004524 0.32178974152 7.861978054 -3.6580796242 -0.48635101318 9.4335269928 -1.2919168472 -1.7157649994 
10.219299316 -1.2919168472 4.2965583801 10.219299316 -2.4952745438 3.554350853 11.790847778 -2.0659213066 3.554350853 
11.114517212 -2.8545913696 1.1299304962 13.460273743 -1.2919168472 1.9380702972 10.219299316 -3.4761209488 1.9380702972 
10.219299316 -3.4761209488 1.9380702972 11.790847778 -2.0659213066 3.554350853 10.219299316 -2.4952745438 3.554350853 
13.362394333 -1.4577302933 2.7462110519 10.219299316 -3.4761209488 1.9380702972 13.460273743 -1.2919168472 1.9380702972 
10.219299316 -3.4761209488 1.9380702972 13.362394333 -1.4577302933 2.7462110519 11.790847778 -2.0659213066 3.554350853 
0.46330213547 -0.51057958603 -0.48635101318 1.5757884979 -2.2703104019 -1.294491291 1.5757884979 -2.8748617172 -0.48635101318 
1.6704163551 -2.8545913696 0.32178974152 0.46330213547 -0.51057958603 -0.48635101318 1.5757884979 -2.8748617172 -0.48635101318 
0.26339101791 0.27075767517 0.32178974152 0.46330213547 -0.51057958603 -0.48635101318 1.6704163551 -2.8545913696 0.32178974152 
1.6704163551 -2.8545913696 0.32178974152 1.7889513969 -2.0732541084 1.1299304962 0.26339101791 0.27075767517 0.32178974152 
4.7188830376 -3.2294869423 -1.294491291 1.5757884979 -2.2703104019 -1.294491291 2.361562252 -1.2919168472 -1.9590849876 
5.5046572685 -2.0732541084 -2.0670962334 4.7188830376 -3.2294869423 -1.294491291 2.361562252 -1.2919168472 -1.9590849876 
4.7188830376 -2.0732541084 2.4906511307 7.0762047768 -2.8545913696 3.1355390549 7.0762047768 0.27075767517 3.8136339188 
7.0762047768 0.27075767517 3.8136339188 7.0762047768 -2.8545913696 3.1355390549 8.6477527618 -1.2919168472 4.0343332291 
10.219299316 -3.0681004524 0.32178974152 9.4335269928 -1.2919168472 -1.7157649994 12.964332581 0.27075767517 -0.48635101318 
13.362394333 -1.4577302933 2.7462110519 13.362394333 -1.2365679741 3.554350853 11.790847778 -2.0659213066 3.554350853 
1.5757884979 -0.51057958603 -1.8316245079 1.5757884979 -2.2703104019 -1.294491291 0.46330213547 -0.51057958603 -0.48635101318 
1.7889513969 -2.0732541084 1.1299304962 1.5757884979 1.0520944595 1.5241546631 0.26339101791 0.27075767517 0.32178974152 
2.361562252 -1.2919168472 -1.9590849876 1.5757884979 -0.51057958603 -1.8316245079 2.361562252 -0.51057958603 -2.128288269 
2.361562252 -1.2919168472 -1.9590849876 1.5757884979 -2.2703104019 -1.294491291 1.5757884979 -0.51057958603 -1.8316245079 
2.361562252 -1.2919168472 1.7225189209 1.5757884979 1.0520944595 1.5241546631 1.7889513969 -2.0732541084 1.1299304962 
4.7188830376 -2.0732541084 2.4906511307 3.1473360062 0.27075767517 2.0895833969 2.361562252 -1.2919168472 1.7225189209 
4.7188830376 -0.51057958603 -2.5751204491 2.361562252 -1.2919168472 -1.9590849876 2.361562252 -0.51057958603 -2.128288269 
3.1473360062 0.27075767517 2.0895833969 4.7188830376 -2.0732541084 2.4906511307 7.0762047768 0.27075767517 3.8136339188 
5.5046572685 -2.0732541084 -2.0670962334 2.361562252 -1.2919168472 -1.9590849876 4.7188830376 -0.51057958603 -2.5751204491 
12.964332581 0.27075767517 -0.48635101318 13.848438263 0.27075767517 0.32178974152 10.219299316 -3.0681004524 0.32178974152 
10.219299316 -1.2919168472 4.2965583801 11.790847778 -2.0659213066 3.554350853 12.576622009 0.27075767517 4.944437027 
13.848438263 0.27075767517 0.32178974152 11.114517212 -2.8545913696 1.1299304962 10.219299316 -3.0681004524 0.32178974152 
11.790847778 -2.0659213066 3.554350853 13.362394333 -1.2365679741 3.554350853 12.576622009 0.27075767517 4.944437027 
13.848438263 0.27075767517 0.32178974152 13.460273743 -1.2919168472 1.9380702972 11.114517212 -2.8545913696 1.1299304962 
13.460273743 -1.2919168472 1.9380702972 14.148168564 -0.78933572769 2.7462110519 13.362394333 -1.4577302933 2.7462110519 
13.362394333 -1.4577302933 2.7462110519 14.148168564 -0.78933572769 2.7462110519 13.362394333 -1.2365679741 3.554350853 
13.362394333 -1.2365679741 3.554350853 14.226411819 0.27075767517 4.3624916077 12.576622009 0.27075767517 4.944437027 
2.361562252 -1.2919168472 1.7225189209 3.1473360062 0.27075767517 2.0895833969 1.5757884979 1.0520944595 1.5241546631 
4.7188830376 1.0520944595 -2.8233828545 4.7188830376 -0.51057958603 -2.5751204491 2.361562252 -0.51057958603 -2.128288269 
8.6477527618 0.27075767517 -2.6346769333 5.5046572685 -2.0732541084 -2.0670962334 4.7188830376 -0.51057958603 -2.5751204491 
9.4335269928 -1.2919168472 -1.7157649994 5.5046572685 -2.0732541084 -2.0670962334 8.6477527618 0.27075767517 -2.6346769333 
11.005073547 2.6147689819 -2.6280989647 9.4335269928 -1.2919168472 -1.7157649994 8.6477527618 0.27075767517 -2.6346769333 
12.964332581 0.27075767517 -0.48635101318 9.4335269928 -1.2919168472 -1.7157649994 11.005073547 2.6147689819 -2.6280989647 
0.46330213547 -0.51057958603 -0.48635101318 0.26339101791 0.27075767517 0.32178974152 0.54870414734 1.0520944595 -0.48635101318 
0.54870414734 1.0520944595 -0.48635101318 1.5757884979 1.0520944595 -1.8394227028 1.5757884979 -0.51057958603 -1.8316245079 
0.46330213547 -0.51057958603 -0.48635101318 0.54870414734 1.0520944595 -0.48635101318 1.5757884979 -0.51057958603 -1.8316245079 
3.1473360062 1.0520944595 -2.4408369064 2.361562252 -0.51057958603 -2.128288269 1.5757884979 -0.51057958603 -1.8316245079 
1.5757884979 1.0520944595 -1.8394227028 3.1473360062 1.0520944595 -2.4408369064 1.5757884979 -0.51057958603 -1.8316245079 
[...]
CELL_DATA 864
FIELD FieldData 1
GroupIds 1 864 float
0 0 0 0 0 0 0 0 0 
0 0 0 0 0 0 0 0 0 
0 0 0 0 0 0 0 0 0 
0 0 0 0 0 0 0 0 0 
0 0 0 0 0 0 0 0 0 
0 0 0 0 0 0 0 0 0 
0 0 0 0 0 0 0 0 0 
0 0 0 0 0 0 0 0 0 
0 0 0 0 0 0 0 0 0 
0 0 0 0 0 0 0 0 0 
0 0 0 0 0 0 0 0 0 
0 0 0 0 0 0 0 0 0 
0 0 0 0 0 0 0 0 0 
0 0 0 0 0 0 0 0 0 
0 0 0 0 0 0 0 0 0 
0 0 0 0 0 0 0 0 0 
0 0 0 0 0 0 0 0 0 
0 0 0 0 0 0 0 0 0 
0 0 0 0 0 0 0 0 0 
0 0 0 0 0 0 0 0 0 
0 0 0 0 0 0 0 0 0 
0 0 0 0 0 0 0 0 0 
0 0 0 0 0 0 0 0 0 
0 0 0 0 0 0 0 0 0 
0 0 0 0 0 0 0 0 0 
0 0 0 0 0 0 0 0 0 
0 0 0 0 0 0 0 0 0 
0 0 0 0 0 0 0 0 0 
0 0 0 0 0 0 0 0 0 
0 0 0 0 0 0 0 0 0 
0 0 0 0 0 0 0 0 0 
0 0 0 0 0 0 0 0 0 
0 0 0 0 0 0 0 0 0 
0 0 0 0 0 0 0 0 0 
0 0 0 0 0 0 0 0 0 
0 0 0 0 0 0 0 0 0 
0 0 0 0 0 0 0 0 0 
0 0 0 0 0 0 0 0 0 
0 0 0 0 0 0 0 0 0 
0 0 0 0 0 0 0 0 0 
0 0 0 0 0 0 0 0 0 
0 0 0 0 0 0 0 0 0 
0 0 0 0 0 0 0 0 0 
0 0 0 0 0 0 0 0 0 
0 0 0 0 0 0 0 0 0 
0 0 0 0 0 0 0 0 0 
0 0 0 0 0 0 0 0 0 
0 0 0 0 0 0 0 0 0 
0 0 0 0 0 0 0 0 0 
0 0 0 0 0 0 0 0 0 
0 0 0 0 0 0 0 0 0 
0 0 0 0 0 0 0 0 0 
0 0 0 0 0 0 0 0 0 
0 0 0 0 0 0 0 0 0 
0 0 0 0 0 0 0 0 0 
0 0 0 0 0 0 0 0 0 
0 0 0 0 0 0 0 0 0 
0 0 0 0 0 0 0 0 0 
0 0 0 0 0 0 0 0 0 
0 0 0 0 0 0 0 0 0 
0 0 0 0 0 0 0 0 0 
0 0 0 0 0 0 0 0 0 
0 0 0 0 0 0 0 0 0 
0 0 0 0 0 0 0 0 0 
0 0 0 0 0 0 0 0 0 
0 0 0 0 0 0 0 0 0 
0 0 0 0 0 0 0 0 0 
0 0 0 0 0 0 0 0 0 
0 0 0 0 0 0 0 0 0 
0 0 0 0 0 0 0 0 0 
0 0 0 0 0 0 0 0 0 
0 0 0 0 0 0 0 0 0 
0 0 0 0 0 0 0 0 0 
0 0 0 0 0 0 0 0 0 
0 0 0 0 0 0 0 0 0 
0 0 0 0 0 0 0 0 0 
0 0 0 0 0 0 0 0 0 
0 0 0 0 0 0 0 0 0 
0 0 0 0 0 0 0 0 0 
0 0 0 0 0 0 0 0 0 
0 0 0 0 0 0 0 0 0 
0 0 0 0 0 0 0 0 0 
0 0 0 0 0 0 0 0 0 
0 0 0 0 0 0 0 0 0 
0 0 0 0 0 0 0 0 0 
0 0 0 0 0 0 0 0 0 
0 0 0 0 0 0 0 0 0 
0 0 0 0 0 0 0 0 0 
0 0 0 0 0 0 0 0 0 
0 0 0 0 0 0 0 0 0 
0 0 0 0 0 0 0 0 0 
0 0 0 0 0 0 0 0 0 
0 0 0 0 0 0 0 0 0 
0 0 0 0 0 0 0 0 0 
0 0 0 0 0 0 0 0 0 
0 0 0 0 0 0 0 0 0 

POINT_DATA 2592
NORMALS Normals float
-0.213895 -0.97683 -0.00719887 -0.213895 -0.97683 -0.00719887 -0.213895 -0.97683 -0.00719887 
-0.284415 -0.927042 -0.244339 -0.284415 -0.927042 -0.244339 -0.284415 -0.927042 -0.244339 
-0.235436 -0.767395 0.596385 -0.235436 -0.767395 0.596385 -0.235436 -0.767395 0.596385 
-0.384651 -0.878091 0.284605 -0.384651 -0.878091 0.284605 -0.384651 -0.878091 0.284605 
-0.352412 -0.780561 0.516266 -0.352412 -0.780561 0.516266 -0.352412 -0.780561 0.516266 
0.0582118 -0.770353 -0.634955 0.0582118 -0.770353 -0.634955 0.0582118 -0.770353 -0.634955 
0.0728754 -0.964406 -0.254187 0.0728754 -0.964406 -0.254187 0.0728754 -0.964406 -0.254187 
-0.0158183 -0.845913 -0.533087 -0.0158183 -0.845913 -0.533087 -0.0158183 -0.845913 -0.533087 
-0.0186314 -0.996348 -0.0833242 -0.0186314 -0.996348 -0.0833242 -0.0186314 -0.996348 -0.0833242 
-0.082128 -0.960055 -0.267486 -0.082128 -0.960055 -0.267486 -0.082128 -0.960055 -0.267486 
-0.0831467 -0.971963 0.219942 -0.0831467 -0.971963 0.219942 -0.0831467 -0.971963 0.219942 
-0.19212 -0.818533 0.541381 -0.19212 -0.818533 0.541381 -0.19212 -0.818533 0.541381 
-0.197776 -0.842628 0.500861 -0.197776 -0.842628 0.500861 -0.197776 -0.842628 0.500861 
0.366987 -0.786988 -0.495953 0.366987 -0.786988 -0.495953 0.366987 -0.786988 -0.495953 
0.409765 -0.878723 -0.244826 0.409765 -0.878723 -0.244826 0.409765 -0.878723 -0.244826 
0.290417 -0.933303 0.211194 0.290417 -0.933303 0.211194 0.290417 -0.933303 0.211194 
-0.60656 -0.789831 0.0908352 -0.60656 -0.789831 0.0908352 -0.60656 -0.789831 0.0908352 
-0.540298 -0.841451 -0.00620117 -0.540298 -0.841451 -0.00620117 -0.540298 -0.841451 -0.00620117 
-0.518498 -0.675162 0.524705 -0.518498 -0.675162 0.524705 -0.518498 -0.675162 0.524705 
-0.203436 -0.666633 -0.717087 -0.203436 -0.666633 -0.717087 -0.203436 -0.666633 -0.717087 
-0.166608 -0.760876 -0.627144 -0.166608 -0.760876 -0.627144 -0.166608 -0.760876 -0.627144 
0.119426 -0.606444 -0.786106 0.119426 -0.606444 -0.786106 0.119426 -0.606444 -0.786106 
-0.317561 -0.540833 0.77888 -0.317561 -0.540833 0.77888 -0.317561 -0.540833 0.77888 
0.181677 -0.545707 -0.818045 0.181677 -0.545707 -0.818045 0.181677 -0.545707 -0.818045 
0.0500721 -0.720712 0.691424 0.0500721 -0.720712 0.691424 0.0500721 -0.720712 0.691424 
-0.0442038 -0.569798 0.820595 -0.0442038 -0.569798 0.820595 -0.0442038 -0.569798 0.820595 
0.416157 -0.880122 -0.228472 0.416157 -0.880122 -0.228472 0.416157 -0.880122 -0.228472 
0.417325 -0.882592 -0.216497 0.417325 -0.882592 -0.216497 0.417325 -0.882592 -0.216497 
0.257079 -0.826164 0.501361 0.257079 -0.826164 0.501361 0.257079 -0.826164 0.501361 
-0.457257 -0.712124 -0.532724 -0.457257 -0.712124 -0.532724 -0.457257 -0.712124 -0.532724 
-0.594957 -0.532473 0.602079 -0.594957 -0.532473 0.602079 -0.594957 -0.532473 0.602079 
-0.347745 -0.391342 0.852012 -0.347745 -0.391342 0.852012 -0.347745 -0.391342 0.852012 
-0.411045 -0.475504 0.777777 -0.411045 -0.475504 0.777777 -0.411045 -0.475504 0.777777 
-0.352197 -0.390647 0.850501 -0.352197 -0.390647 0.850501 -0.352197 -0.390647 0.850501 
-0.373767 -0.465537 0.80223 -0.373767 -0.465537 0.80223 -0.373767 -0.465537 0.80223 
-0.0680957 -0.44508 0.892898 -0.0680957 -0.44508 0.892898 -0.0680957 -0.44508 0.892898 
-0.140607 -0.519744 0.842672 -0.140607 -0.519744 0.842672 -0.140607 -0.519744 0.842672 
0.389057 -0.61484 -0.686008 0.389057 -0.61484 -0.686008 0.389057 -0.61484 -0.686008 
0.141968 -0.519642 0.842507 0.141968 -0.519642 0.842507 0.141968 -0.519642 0.842507 
0.558768 -0.829114 -0.0186841 0.558768 -0.829114 -0.0186841 0.558768 -0.829114 -0.0186841 
0.22744 -0.832492 0.505201 0.22744 -0.832492 0.505201 0.22744 -0.832492 0.505201 
0.555955 -0.82494 -0.101925 0.555955 -0.82494 -0.101925 0.555955 -0.82494 -0.101925 
0.46755 -0.839239 0.277624 0.46755 -0.839239 0.277624 0.46755 -0.839239 0.277624 
-0.862162 -0.405681 -0.30348 -0.862162 -0.405681 -0.30348 -0.862162 -0.405681 -0.30348 
-0.898744 -0.422894 0.115844 -0.898744 -0.422894 0.115844 -0.898744 -0.422894 0.115844 
-0.898758 -0.404619 0.168872 -0.898758 -0.404619 0.168872 -0.898758 -0.404619 0.168872 
-0.805474 -0.362623 0.468739 -0.805474 -0.362623 0.468739 -0.805474 -0.362623 0.468739 
-0.144616 -0.473889 -0.868629 -0.144616 -0.473889 -0.868629 -0.144616 -0.473889 -0.868629 
-0.148501 -0.477677 -0.865894 -0.148501 -0.477677 -0.865894 -0.148501 -0.477677 -0.865894 
-0.319886 -0.200892 0.925913 -0.319886 -0.200892 0.925913 -0.319886 -0.200892 0.925913 
-0.328732 -0.200249 0.92295 -0.328732 -0.200249 0.92295 -0.328732 -0.200249 0.92295 
0.482342 -0.559664 -0.673885 0.482342 -0.559664 -0.673885 0.482342 -0.559664 -0.673885 
0.453628 -0.859583 0.235241 0.453628 -0.859583 0.235241 0.453628 -0.859583 0.235241 
-0.756453 -0.190942 -0.625556 -0.756453 -0.190942 -0.625556 -0.756453 -0.190942 -0.625556 
-0.622442 -0.139594 0.770117 -0.622442 -0.139594 0.770117 -0.622442 -0.139594 0.770117 
-0.346176 -0.198564 -0.916916 -0.346176 -0.198564 -0.916916 -0.346176 -0.198564 -0.916916 
-0.406894 -0.266679 -0.873682 -0.406894 -0.266679 -0.873682 -0.406894 -0.266679 -0.873682 
-0.613475 -0.139879 0.777227 -0.613475 -0.139879 0.777227 -0.613475 -0.139879 0.777227 
-0.326469 -0.0574528 0.94346 -0.326469 -0.0574528 0.94346 -0.326469 -0.0574528 0.94346 
-0.182157 -0.208109 -0.960994 -0.182157 -0.208109 -0.960994 -0.182157 -0.208109 -0.960994 
-0.399301 -0.112017 0.909951 -0.399301 -0.112017 0.909951 -0.399301 -0.112017 0.909951 
-0.121674 -0.361681 -0.924328 -0.121674 -0.361681 -0.924328 -0.121674 -0.361681 -0.924328 
0.544067 -0.591368 -0.595209 0.544067 -0.591368 -0.595209 0.544067 -0.591368 -0.595209 
0.128096 -0.538519 0.83282 0.128096 -0.538519 0.83282 0.128096 -0.538519 0.83282 
0.591851 -0.643307 -0.485663 0.591851 -0.643307 -0.485663 0.591851 -0.643307 -0.485663 
0.295462 -0.559873 0.774108 0.295462 -0.559873 0.774108 0.295462 -0.559873 0.774108 
0.594855 -0.644551 -0.480314 0.594855 -0.644551 -0.480314 0.594855 -0.644551 -0.480314 
0.64597 -0.759411 -0.0775774 0.64597 -0.759411 -0.0775774 0.64597 -0.759411 -0.0775774 
0.634288 -0.745678 0.204068 0.634288 -0.745678 0.204068 0.634288 -0.745678 0.204068 
0.272993 -0.571416 0.773924 0.272993 -0.571416 0.773924 0.272993 -0.571416 0.773924 
-0.355957 -0.0403165 0.933632 -0.355957 -0.0403165 0.933632 -0.355957 -0.0403165 0.933632 
-0.184007 -0.154223 -0.970751 -0.184007 -0.154223 -0.970751 -0.184007 -0.154223 -0.970751 
0.0430277 -0.289252 -0.956286 0.0430277 -0.289252 -0.956286 0.0430277 -0.289252 -0.956286 
0.165891 -0.436556 -0.88425 0.165891 -0.436556 -0.88425 0.165891 -0.436556 -0.88425 
0.342682 -0.342173 -0.874921 0.342682 -0.342173 -0.874921 0.342682 -0.342173 -0.874921 
0.447302 -0.370083 -0.814223 0.447302 -0.370083 -0.814223 0.447302 -0.370083 -0.814223 
-0.956461 0.0522718 -0.28714 -0.956461 0.0522718 -0.28714 -0.956461 0.0522718 -0.28714 
-0.796513 -0.0030172 -0.604614 -0.796513 -0.0030172 -0.604614 -0.796513 -0.0030172 -0.604614 
-0.769949 0.0420786 -0.636716 -0.769949 0.0420786 -0.636716 -0.769949 0.0420786 -0.636716 
-0.353193 -0.00950956 -0.935502 -0.353193 -0.00950956 -0.935502 -0.353193 -0.00950956 -0.935502 
-0.357408 -0.00466062 -0.933937 -0.357408 -0.00466062 -0.933937 -0.357408 -0.00466062 -0.933937 
-0.276723 0.132207 0.951812 -0.276723 0.132207 0.951812 -0.276723 0.132207 0.951812 
-0.235844 -0.0751924 -0.968877 -0.235844 -0.0751924 -0.968877 -0.235844 -0.0751924 -0.968877 
-0.401406 0.0459475 0.914747 -0.401406 0.0459475 0.914747 -0.401406 0.0459475 0.914747 
-0.0182758 -0.320622 -0.947031 -0.0182758 -0.320622 -0.947031 -0.0182758 -0.320622 -0.947031 
0.0162303 -0.156882 -0.987484 0.0162303 -0.156882 -0.987484 0.0162303 -0.156882 -0.987484 
-0.218699 -0.0826226 0.972288 -0.218699 -0.0826226 0.972288 -0.218699 -0.0826226 0.972288 
-0.326665 -0.0571464 0.943411 -0.326665 -0.0571464 0.943411 -0.326665 -0.0571464 0.943411 
-0.161594 -0.189709 0.968451 -0.161594 -0.189709 0.968451 -0.161594 -0.189709 0.968451 
-0.136519 -0.196604 0.970932 -0.136519 -0.196604 0.970932 -0.136519 -0.196604 0.970932 
0.60459 -0.443837 -0.661422 0.60459 -0.443837 -0.661422 0.60459 -0.443837 -0.661422 
0.701675 -0.515108 -0.492256 0.701675 -0.515108 -0.492256 0.701675 -0.515108 -0.492256 
0.71395 -0.581211 -0.390473 0.71395 -0.581211 -0.390473 0.71395 -0.581211 -0.390473 
0.760164 -0.58463 -0.283476 0.760164 -0.58463 -0.283476 0.760164 -0.58463 -0.283476 
0.69863 -0.636304 0.327158 0.69863 -0.636304 0.327158 0.69863 -0.636304 0.327158 
0.670254 -0.610459 0.422018 0.670254 -0.610459 0.422018 0.670254 -0.610459 0.422018 
-0.937969 0.346696 0.00404772 -0.937969 0.346696 0.00404772 -0.937969 0.346696 0.00404772 
-0.732966 0.270922 0.623989 -0.732966 0.270922 0.623989 -0.732966 0.270922 0.623989 
-0.872422 0.11627 0.474722 -0.872422 0.11627 0.474722 -0.872422 0.11627 0.474722 
-0.3185 0.230675 0.919428 -0.3185 0.230675 0.919428 -0.3185 0.230675 0.919428 
-0.431491 0.124113 0.893539 -0.431491 0.124113 0.893539 -0.431491 0.124113 0.893539 
-0.236513 0.00271006 -0.971625 -0.236513 0.00271006 -0.971625 -0.236513 0.00271006 -0.971625 
-0.359065 0.0715236 0.930568 -0.359065 0.0715236 0.930568 -0.359065 0.0715236 0.930568 
0.0180786 -0.0820823 0.996462 0.0180786 -0.0820823 0.996462 0.0180786 -0.0820823 0.996462 
0.309387 -0.367391 0.8771 0.309387 -0.367391 0.8771 0.309387 -0.367391 0.8771 
0.672383 -0.419523 0.609838 0.672383 -0.419523 0.609838 0.672383 -0.419523 0.609838 
0.514806 -0.321205 0.79486 0.514806 -0.321205 0.79486 0.514806 -0.321205 0.79486 
0.836377 -0.532127 -0.131585 0.836377 -0.532127 -0.131585 0.836377 -0.532127 -0.131585 
-0.69719 0.483582 -0.529221 -0.69719 0.483582 -0.529221 -0.69719 0.483582 -0.529221 
-0.591683 0.245571 -0.767858 -0.591683 0.245571 -0.767858 -0.591683 0.245571 -0.767858 
-0.920875 0.382199 -0.0768944 -0.920875 0.382199 -0.0768944 -0.920875 0.382199 -0.0768944 
-0.23422 0.378218 0.895596 -0.23422 0.378218 0.895596 -0.23422 0.378218 0.895596 
-0.355038 0.115042 -0.927746 -0.355038 0.115042 -0.927746 -0.355038 0.115042 -0.927746 
-0.460485 0.277836 -0.843066 -0.460485 0.277836 -0.843066 -0.460485 0.277836 -0.843066 
-0.428678 0.167933 0.887713 -0.428678 0.167933 0.887713 -0.428678 0.167933 0.887713 
-0.0566856 -0.180629 -0.981916 -0.0566856 -0.180629 -0.981916 -0.0566856 -0.180629 -0.981916 
-0.0159245 -0.0995254 -0.994908 -0.0159245 -0.0995254 -0.994908 -0.0159245 -0.0995254 -0.994908 
0.120513 -0.132673 -0.983806 0.120513 -0.132673 -0.983806 0.120513 -0.132673 -0.983806 
-0.376628 0.172191 0.910221 -0.376628 0.172191 0.910221 -0.376628 0.172191 0.910221 
0.180355 -0.22425 -0.957697 0.180355 -0.22425 -0.957697 0.180355 -0.22425 -0.957697 
0.262755 -0.261641 -0.928711 0.262755 -0.261641 -0.928711 0.262755 -0.261641 -0.928711 
-0.247616 0.113769 0.962155 -0.247616 0.113769 0.962155 -0.247616 0.113769 0.962155 
-0.0145733 -0.07556 0.997035 -0.0145733 -0.07556 0.997035 -0.0145733 -0.07556 0.997035 
0.435423 -0.381207 -0.81553 0.435423 -0.381207 -0.81553 0.435423 -0.381207 -0.81553 
0.491155 -0.236625 0.838317 0.491155 -0.236625 0.838317 0.491155 -0.236625 0.838317 
0.841671 -0.345136 0.415297 0.841671 -0.345136 0.415297 0.841671 -0.345136 0.415297 
-0.613278 0.71591 0.33371 -0.613278 0.71591 0.33371 -0.613278 0.71591 0.33371 
-0.353146 0.64103 0.681446 -0.353146 0.64103 0.681446 -0.353146 0.64103 0.681446 
-0.467142 0.343982 0.814528 -0.467142 0.343982 0.814528 -0.467142 0.343982 0.814528 
-0.444093 0.317183 0.83796 -0.444093 0.317183 0.83796 -0.444093 0.317183 0.83796 
0.299892 -0.223557 -0.927409 0.299892 -0.223557 -0.927409 0.299892 -0.223557 -0.927409 
-0.190465 0.103211 0.976253 -0.190465 0.103211 0.976253 -0.190465 0.103211 0.976253 
0.119278 -0.0477375 0.991713 0.119278 -0.0477375 0.991713 0.119278 -0.0477375 0.991713 
0.585086 -0.393954 -0.708854 0.585086 -0.393954 -0.708854 0.585086 -0.393954 -0.708854 
0.754121 -0.389113 -0.529049 0.754121 -0.389113 -0.529049 0.754121 -0.389113 -0.529049 
0.891611 -0.441668 -0.0997968 0.891611 -0.441668 -0.0997968 0.891611 -0.441668 -0.0997968 
-0.600056 0.700475 0.386352 -0.600056 0.700475 0.386352 -0.600056 0.700475 0.386352 
-0.586195 0.502747 -0.635312 -0.586195 0.502747 -0.635312 -0.586195 0.502747 -0.635312 
-0.248162 0.0277499 -0.968321 -0.248162 0.0277499 -0.968321 -0.248162 0.0277499 -0.968321 
-0.373543 0.213256 0.902767 -0.373543 0.213256 0.902767 -0.373543 0.213256 0.902767 
0.406852 -0.293754 -0.864974 0.406852 -0.293754 -0.864974 0.406852 -0.293754 -0.864974 
0.580147 -0.397509 -0.710926 0.580147 -0.397509 -0.710926 0.580147 -0.397509 -0.710926 
0.768375 -0.380621 -0.514517 0.768375 -0.380621 -0.514517 0.768375 -0.380621 -0.514517 
0.713561 -0.117504 0.690669 0.713561 -0.117504 0.690669 0.713561 -0.117504 0.690669 
0.603061 -0.0897354 0.792632 0.603061 -0.0897354 0.792632 0.603061 -0.0897354 0.792632 
0.925231 -0.3794 -0.00182194 0.925231 -0.3794 -0.00182194 0.925231 -0.3794 -0.00182194 
-0.638444 0.767841 -0.0530063 -0.638444 0.767841 -0.0530063 -0.638444 0.767841 -0.0530063 
-0.596614 0.717533 0.359441 -0.596614 0.717533 0.359441 -0.596614 0.717533 0.359441 
-0.505723 0.591099 0.628367 -0.505723 0.591099 0.628367 -0.505723 0.591099 0.628367 
-0.478713 0.561905 0.674609 -0.478713 0.561905 0.674609 -0.478713 0.561905 0.674609 
-0.428549 0.327623 0.842027 -0.428549 0.327623 0.842027 -0.428549 0.327623 0.842027 
0.181665 0.0811394 0.980007 0.181665 0.0811394 0.980007 0.181665 0.0811394 0.980007 
0.921138 -0.389232 -0.00181388 0.921138 -0.389232 -0.00181388 0.921138 -0.389232 -0.00181388 
-0.568221 0.504887 -0.649779 -0.568221 0.504887 -0.649779 -0.568221 0.504887 -0.649779 
-0.459537 0.284587 -0.84133 -0.459537 0.284587 -0.84133 -0.459537 0.284587 -0.84133 
-0.527077 0.680439 0.509109 -0.527077 0.680439 0.509109 -0.527077 0.680439 0.509109 
-0.291163 0.168897 -0.941646 -0.291163 0.168897 -0.941646 -0.291163 0.168897 -0.941646 
-0.215617 0.0452351 -0.97543 -0.215617 0.0452351 -0.97543 -0.215617 0.0452351 -0.97543 
-0.101592 -0.0133515 -0.994737 -0.101592 -0.0133515 -0.994737 -0.101592 -0.0133515 -0.994737 
-0.114386 0.179948 0.977003 -0.114386 0.179948 0.977003 -0.114386 0.179948 0.977003 
0.293621 0.108193 0.94978 0.293621 0.108193 0.94978 0.293621 0.108193 0.94978 
-0.551331 0.71175 0.435253 -0.551331 0.71175 0.435253 -0.551331 0.71175 0.435253 
-0.565371 0.558563 0.60693 -0.565371 0.558563 0.60693 -0.565371 0.558563 0.60693 
0.177146 -0.0750765 -0.981317 0.177146 -0.0750765 -0.981317 0.177146 -0.0750765 -0.981317 
-0.398848 0.270919 0.876084 -0.398848 0.270919 0.876084 -0.398848 0.270919 0.876084 
-0.448394 0.340188 0.826568 -0.448394 0.340188 0.826568 -0.448394 0.340188 0.826568 
0.220021 -0.0922839 -0.97112 0.220021 -0.0922839 -0.97112 0.220021 -0.0922839 -0.97112 
0.600068 -0.265418 -0.754634 0.600068 -0.265418 -0.754634 0.600068 -0.265418 -0.754634 
0.634795 -0.269496 -0.724159 0.634795 -0.269496 -0.724159 0.634795 -0.269496 -0.724159 
0.766865 -0.325565 -0.553106 0.766865 -0.325565 -0.553106 0.766865 -0.325565 -0.553106 
0.7821 -0.344184 -0.519478 0.7821 -0.344184 -0.519478 0.7821 -0.344184 -0.519478 
0.924319 -0.354529 -0.141225 0.924319 -0.354529 -0.141225 0.924319 -0.354529 -0.141225 
0.936054 -0.325562 0.133461 0.936054 -0.325562 0.133461 0.936054 -0.325562 0.133461 
-0.570724 0.484857 -0.662713 -0.570724 0.484857 -0.662713 -0.570724 0.484857 -0.662713 
-0.586509 0.805198 -0.0875402 -0.586509 0.805198 -0.0875402 -0.586509 0.805198 -0.0875402 
-0.301343 0.635808 -0.710592 -0.301343 0.635808 -0.710592 -0.301343 0.635808 -0.710592 
-0.333065 0.641063 -0.691452 -0.333065 0.641063 -0.691452 -0.333065 0.641063 -0.691452 
-0.613315 0.602438 0.510796 -0.613315 0.602438 0.510796 -0.613315 0.602438 0.510796 
-0.565723 0.55569 0.609235 -0.565723 0.55569 0.609235 -0.565723 0.55569 0.609235 
-0.120508 0.336707 -0.933866 -0.120508 0.336707 -0.933866 -0.120508 0.336707 -0.933866 
0.0217782 0.11062 -0.993624 0.0217782 0.11062 -0.993624 0.0217782 0.11062 -0.993624 
0.0586372 0.0860265 -0.994566 0.0586372 0.0860265 -0.994566 0.0586372 0.0860265 -0.994566 
0.462589 -0.18447 -0.867169 0.462589 -0.18447 -0.867169 0.462589 -0.18447 -0.867169 
0.613949 -0.149624 0.775035 0.613949 -0.149624 0.775035 0.613949 -0.149624 0.775035 
0.862037 -0.33064 -0.384146 0.862037 -0.33064 -0.384146 0.862037 -0.33064 -0.384146 
0.858572 -0.20924 0.468052 0.858572 -0.20924 0.468052 0.858572 -0.20924 0.468052 
-0.594555 0.797392 -0.103301 -0.594555 0.797392 -0.103301 -0.594555 0.797392 -0.103301 
-0.451182 0.868408 -0.205675 -0.451182 0.868408 -0.205675 -0.451182 0.868408 -0.205675 
-0.544169 0.729816 0.413822 -0.544169 0.729816 0.413822 -0.544169 0.729816 0.413822 
-0.634402 0.492828 0.595529 -0.634402 0.492828 0.595529 -0.634402 0.492828 0.595529 
-0.139168 0.34402 -0.928592 -0.139168 0.34402 -0.928592 -0.139168 0.34402 -0.928592 
-0.438386 0.393398 0.808119 -0.438386 0.393398 0.808119 -0.438386 0.393398 0.808119 
0.0580061 0.169273 -0.983861 0.0580061 0.169273 -0.983861 0.0580061 0.169273 -0.983861 
0.262444 -0.0764879 -0.961911 0.262444 -0.0764879 -0.961911 0.262444 -0.0764879 -0.961911 
-0.149745 0.292104 0.944591 -0.149745 0.292104 0.944591 -0.149745 0.292104 0.944591 
0.489163 -0.216444 -0.844909 0.489163 -0.216444 -0.844909 0.489163 -0.216444 -0.844909 
0.295126 -0.0393135 0.954649 0.295126 -0.0393135 0.954649 0.295126 -0.0393135 0.954649 
0.586193 -0.118089 0.801519 0.586193 -0.118089 0.801519 0.586193 -0.118089 0.801519 
-0.633836 0.731208 0.252163 -0.633836 0.731208 0.252163 -0.633836 0.731208 0.252163 
-0.129886 0.419383 -0.898469 -0.129886 0.419383 -0.898469 -0.129886 0.419383 -0.898469 
-0.211438 0.417125 -0.883912 -0.211438 0.417125 -0.883912 -0.211438 0.417125 -0.883912 
-0.446328 0.391546 0.804663 -0.446328 0.391546 0.804663 -0.446328 0.391546 0.804663 
0.0223554 0.169517 -0.985274 0.0223554 0.169517 -0.985274 0.0223554 0.169517 -0.985274 
-0.165933 0.250509 0.953788 -0.165933 0.250509 0.953788 -0.165933 0.250509 0.953788 
0.335393 -0.101244 -0.936622 0.335393 -0.101244 -0.936622 0.335393 -0.101244 -0.936622 
0.148335 0.115726 0.982143 0.148335 0.115726 0.982143 0.148335 0.115726 0.982143 