# vtk DataFile Version 4.2
3D Slicer output. SPACE=LPS
ASCII
DATASET POLYDATA
POINTS 2376 double
4.3430342674 -4.7479052544 0.52730560303 5.1946721077 -4.9229025841 1.3961896896 4.3361907005 -3.7119970322 2.2650747299 
7.7495875359 -5.0487456322 0.52730560303 7.7495875359 -5.3579144478 1.3961896896 4.3430342674 -4.43760252 -0.34157848358 
4.3430342674 -4.43760252 -0.34157848358 7.7495875359 -5.3579144478 1.3961896896 4.3430342674 -4.7479052544 0.52730560303 
7.7495875359 -5.3579144478 1.3961896896 5.1946721077 -4.9229025841 1.3961896896 4.3430342674 -4.7479052544 0.52730560303 
7.7495875359 -5.3579144478 1.3961896896 7.7495875359 -5.2700471878 2.2650747299 5.1946721077 -4.9229025841 1.3961896896 
7.7495875359 -5.2700471878 2.2650747299 9.4528636932 -4.672211647 3.1339588165 8.6012248993 -3.7119970322 4.039721489 
7.7495875359 -5.3579144478 1.3961896896 11.156141281 -4.2762756348 2.2650747299 7.7495875359 -5.2700471878 2.2650747299 
11.156141281 -4.2762756348 2.2650747299 9.4528636932 -4.672211647 3.1339588165 7.7495875359 -5.2700471878 2.2650747299 
7.7495875359 -5.3579144478 1.3961896896 7.7495875359 -5.0487456322 0.52730560303 11.156141281 -4.2762756348 2.2650747299 
1.7881188393 -3.5668168068 -0.34157848358 4.3430342674 -4.7479052544 0.52730560303 1.7881188393 -3.5165863037 0.52730560303 
4.3430342674 -4.43760252 -0.34157848358 4.3430342674 -4.7479052544 0.52730560303 1.7881188393 -3.5668168068 -0.34157848358 
4.3361907005 -3.7119970322 2.2650747299 1.7881188393 -3.5165863037 0.52730560303 4.3430342674 -4.7479052544 0.52730560303 
4.3361907005 -3.7119970322 2.2650747299 5.1946721077 -4.9229025841 1.3961896896 6.8979487419 -3.7119970322 3.6077165604 
7.7495875359 -5.0487456322 0.52730560303 4.3430342674 -4.43760252 -0.34157848358 6.0463109016 -3.7119970322 -1.1459946632 
7.7495875359 -5.2700471878 2.2650747299 6.8979487419 -3.7119970322 3.6077165604 5.1946721077 -4.9229025841 1.3961896896 
6.8979487419 -3.7119970322 3.6077165604 7.7495875359 -5.2700471878 2.2650747299 8.6012248993 -3.7119970322 4.039721489 
6.0463109016 -3.7119970322 -1.1459946632 9.4528636932 -2.0380945206 -1.5472741127 9.4528636932 -3.7113823891 -0.34157848358 
9.4528636932 -3.7113823891 -0.34157848358 7.7495875359 -5.0487456322 0.52730560303 6.0463109016 -3.7119970322 -1.1459946632 
7.7495875359 -5.0487456322 0.52730560303 9.4528636932 -3.7113823891 -0.34157848358 10.783266068 -3.7119970322 0.52730560303 
7.7495875359 -5.0487456322 0.52730560303 10.783266068 -3.7119970322 0.52730560303 11.156141281 -4.2762756348 2.2650747299 
11.156141281 -4.2762756348 2.2650747299 13.711055756 -2.9899334908 3.1339588165 9.4528636932 -4.672211647 3.1339588165 
11.156141281 -4.2762756348 2.2650747299 10.783266068 -3.7119970322 0.52730560303 13.711055756 -2.8106198311 2.2650747299 
13.711055756 -2.8147096634 4.0028429031 9.4528636932 -4.672211647 3.1339588165 13.711055756 -2.9899334908 3.1339588165 
1.7881188393 -2.8750457764 -1.1565885544 1.7881188393 -3.5668168068 -0.34157848358 1.2381577492 -2.8750457764 -0.34157848358 
1.2381577492 -2.8750457764 -0.34157848358 1.7881188393 -3.5668168068 -0.34157848358 1.7881188393 -3.5165863037 0.52730560303 
4.3430342674 -4.43760252 -0.34157848358 1.7881188393 -3.5668168068 -0.34157848358 1.7881188393 -2.8750457764 -1.1565885544 
4.3430342674 -4.43760252 -0.34157848358 1.7881188393 -2.8750457764 -1.1565885544 6.0463109016 -3.7119970322 -1.1459946632 
1.7881188393 -2.8750457764 -1.1565885544 6.0463109016 -2.8750457764 -1.6610984802 6.0463109016 -3.7119970322 -1.1459946632 
9.4528636932 -4.672211647 3.1339588165 12.859418869 -2.0380945206 5.1897258759 8.6012248993 -3.7119970322 4.039721489 
13.711055756 -2.8147096634 4.0028429031 12.859418869 -2.0380945206 5.1897258759 9.4528636932 -4.672211647 3.1339588165 
13.711055756 -2.8106198311 2.2650747299 13.711055756 -2.9899334908 3.1339588165 11.156141281 -4.2762756348 2.2650747299 
1.7881188393 -2.8750457764 -1.1565885544 1.2381577492 -2.8750457764 -0.34157848358 1.7881188393 -2.0380945206 -1.5722160339 
1.7881188393 -3.5165863037 0.52730560303 0.48399209976 -0.36419296265 0.52730560303 1.2381577492 -2.8750457764 -0.34157848358 
1.7881188393 -3.5165863037 0.52730560303 1.7881188393 -2.0380945206 1.614783287 0.48399209976 -0.36419296265 0.52730560303 
1.7881188393 -3.5165863037 0.52730560303 4.3361907005 -3.7119970322 2.2650747299 1.7881188393 -2.0380945206 1.614783287 
1.7881188393 -2.0380945206 1.614783287 4.3361907005 -3.7119970322 2.2650747299 6.8979487419 -3.7119970322 3.6077165604 
1.7881188393 -2.0380945206 1.614783287 6.8979487419 -3.7119970322 3.6077165604 6.8979487419 -2.0380945206 4.0866670609 
9.4528636932 -2.0380945206 -1.5472741127 6.0463109016 -3.7119970322 -1.1459946632 6.0463109016 -2.8750457764 -1.6610984802 
8.6012248993 -3.7119970322 4.039721489 9.4528636932 -0.36419296265 5.106675148 6.8979487419 -3.7119970322 3.6077165604 
9.4528636932 -0.36419296265 5.106675148 6.8979487419 -2.0380945206 4.0866670609 6.8979487419 -3.7119970322 3.6077165604 
9.4528636932 -0.36419296265 5.106675148 8.6012248993 -3.7119970322 4.039721489 12.007780075 -0.36419296265 5.6834383011 
8.6012248993 -3.7119970322 4.039721489 12.859418869 -2.0380945206 5.1897258759 12.007780075 -0.36419296265 5.6834383011 
9.4528636932 -3.7113823891 -0.34157848358 9.4528636932 -2.0380945206 -1.5472741127 12.859418869 -0.36419296265 -0.96935844421 
12.859418869 -0.36419296265 -0.96935844421 10.783266068 -3.7119970322 0.52730560303 9.4528636932 -3.7113823891 -0.34157848358 
13.711055756 -1.6045975685 0.52730560303 10.783266068 -3.7119970322 0.52730560303 12.859418869 -0.36419296265 -0.96935844421 
10.783266068 -3.7119970322 0.52730560303 13.711055756 -1.6045975685 0.52730560303 13.711055756 -2.8106198311 2.2650747299 
13.711055756 -2.8147096634 4.0028429031 14.56269455 -1.5275011063 4.8717279434 12.859418869 -2.0380945206 5.1897258759 
1.7881188393 -2.0380945206 -1.5722160339 1.2381577492 -2.8750457764 -0.34157848358 0.41148281097 0.47275829315 -0.34157848358 
0.41148281097 0.47275829315 -0.34157848358 1.2381577492 -2.8750457764 -0.34157848358 0.48399209976 -0.36419296265 0.52730560303 
1.7881188393 -2.8750457764 -1.1565885544 1.7881188393 -2.0380945206 -1.5722160339 6.0463109016 -1.2011432648 -2.314414978 
6.0463109016 -2.8750457764 -1.6610984802 1.7881188393 -2.8750457764 -1.1565885544 6.0463109016 -1.2011432648 -2.314414978 
6.0463109016 -1.2011432648 -2.314414978 8.6012248993 -0.36419296265 -2.4536027908 6.0463109016 -2.8750457764 -1.6610984802 
9.4528636932 -2.0380945206 -1.5472741127 6.0463109016 -2.8750457764 -1.6610984802 8.6012248993 -0.36419296265 -2.4536027908 
13.711055756 -1.6045975685 0.52730560303 15.414333344 0.14561080933 0.52730560303 13.711055756 -2.8106198311 2.2650747299 
13.711055756 -2.8106198311 2.2650747299 15.597068787 -1.2011432648 4.0028429031 13.711055756 -2.9899334908 3.1339588165 
15.470417023 -1.2011432648 2.2650747299 15.597068787 -1.2011432648 4.0028429031 13.711055756 -2.8106198311 2.2650747299 
13.711055756 -2.9899334908 3.1339588165 15.597068787 -1.2011432648 4.0028429031 13.711055756 -2.8147096634 4.0028429031 
15.597068787 -1.2011432648 4.0028429031 14.56269455 -1.5275011063 4.8717279434 13.711055756 -2.8147096634 4.0028429031 
1.7881188393 -0.36419296265 -1.799478054 1.7881188393 -2.0380945206 -1.5722160339 0.41148281097 0.47275829315 -0.34157848358 
6.8979487419 -2.0380945206 4.0866670609 1.7881188393 0.47275829315 1.7674875259 1.7881188393 -2.0380945206 1.614783287 
6.0463109016 -1.2011432648 -2.314414978 1.7881188393 -2.0380945206 -1.5722160339 4.3430342674 1.309709549 -2.3858661652 
4.3430342674 1.309709549 -2.3858661652 1.7881188393 -2.0380945206 -1.5722160339 1.7881188393 -0.36419296265 -1.799478054 
7.7495875359 2.9836111069 -3.0435333252 6.0463109016 -1.2011432648 -2.314414978 4.3430342674 1.309709549 -2.3858661652 
11.156141281 2.1466598511 -2.6531400681 9.4528636932 -2.0380945206 -1.5472741127 8.6012248993 -0.36419296265 -2.4536027908 
15.414333344 1.298242569 -0.34157848358 13.711055756 -1.6045975685 0.52730560303 12.859418869 -0.36419296265 -0.96935844421 
12.859418869 -2.0380945206 5.1897258759 14.56269455 -0.36419296265 5.5000915527 12.007780075 -0.36419296265 5.6834383011 
15.414333344 1.298242569 -0.34157848358 15.414333344 0.14561080933 0.52730560303 13.711055756 -1.6045975685 0.52730560303 
14.56269455 -1.5275011063 4.8717279434 14.56269455 -0.36419296265 5.5000915527 12.859418869 -2.0380945206 5.1897258759 
15.414333344 0.14561080933 0.52730560303 15.470417023 -1.2011432648 2.2650747299 13.711055756 -2.8106198311 2.2650747299 
0.48399209976 -0.36419296265 0.52730560303 0.55696821213 0.47275829315 0.52730560303 0.41148281097 0.47275829315 -0.34157848358 
0.55696821213 0.47275829315 0.52730560303 0.48399209976 -0.36419296265 0.52730560303 1.7881188393 -2.0380945206 1.614783287 
1.7881188393 -2.0380945206 1.614783287 1.7881188393 0.47275829315 1.7674875259 0.55696821213 0.47275829315 0.52730560303 
6.8979487419 -2.0380945206 4.0866670609 7.7495875359 0.47275829315 4.478053093 1.7881188393 0.47275829315 1.7674875259 
8.6012248993 -0.36419296265 -2.4536027908 6.0463109016 -1.2011432648 -2.314414978 7.7495875359 2.9836111069 -3.0435333252 
9.4528636932 -0.36419296265 5.106675148 7.7495875359 0.47275829315 4.478053093 6.8979487419 -2.0380945206 4.0866670609 
12.859418869 -0.36419296265 -0.96935844421 9.4528636932 -2.0380945206 -1.5472741127 11.156141281 2.1466598511 -2.6531400681 
12.007780075 -0.36419296265 5.6834383011 14.56269455 -0.36419296265 5.5000915527 14.56269455 2.1466598511 5.8846569061 
17.093265533 2.1466598511 4.8717279434 15.597068787 -1.2011432648 4.0028429031 17.266836166 1.309709549 4.0028429031 
17.093265533 2.1466598511 4.8717279434 14.56269455 -1.5275011063 4.8717279434 15.597068787 -1.2011432648 4.0028429031 
14.56269455 -1.5275011063 4.8717279434 17.093265533 2.1466598511 4.8717279434 14.56269455 -0.36419296265 5.5000915527 
[...]
CELL_DATA 792
FIELD FieldData 1
GroupIds 1 792 float
0 0 0 0 0 0 0 0 0 
0 0 0 0 0 0 0 0 0 
0 0 0 0 0 0 0 0 0 
0 0 0 0 0 0 0 0 0 
0 0 0 0 0 0 0 0 0 
0 0 0 0 0 0 0 0 0 
0 0 0 0 0 0 0 0 0 
0 0 0 0 0 0 0 0 0 
0 0 0 0 0 0 0 0 0 
0 0 0 0 0 0 0 0 0 
0 0 0 0 0 0 0 0 0 
0 0 0 0 0 0 0 0 0 
0 0 0 0 0 0 0 0 0 
0 0 0 0 0 0 0 0 0 
0 0 0 0 0 0 0 0 0 
0 0 0 0 0 0 0 0 0 
0 0 0 0 0 0 0 0 0 
0 0 0 0 0 0 0 0 0 
0 0 0 0 0 0 0 0 0 
0 0 0 0 0 0 0 0 0 
0 0 0 0 0 0 0 0 0 
0 0 0 0 0 0 0 0 0 
0 0 0 0 0 0 0 0 0 
0 0 0 0 0 0 0 0 0 
0 0 0 0 0 0 0 0 0 
0 0 0 0 0 0 0 0 0 
0 0 0 0 0 0 0 0 0 
0 0 0 0 0 0 0 0 0 
0 0 0 0 0 0 0 0 0 
0 0 0 0 0 0 0 0 0 
0 0 0 0 0 0 0 0 0 
0 0 0 0 0 0 0 0 0 
0 0 0 0 0 0 0 0 0 
0 0 0 0 0 0 0 0 0 
0 0 0 0 0 0 0 0 0 
0 0 0 0 0 0 0 0 0 
0 0 0 0 0 0 0 0 0 
0 0 0 0 0 0 0 0 0 
0 0 0 0 0 0 0 0 0 
0 0 0 0 0 0 0 0 0 
0 0 0 0 0 0 0 0 0 
0 0 0 0 0 0 0 0 0 
0 0 0 0 0 0 0 0 0 
0 0 0 0 0 0 0 0 0 
0 0 0 0 0 0 0 0 0 
0 0 0 0 0 0 0 0 0 
0 0 0 0 0 0 0 0 0 
0 0 0 0 0 0 0 0 0 
0 0 0 0 0 0 0 0 0 
0 0 0 0 0 0 0 0 0 
0 0 0 0 0 0 0 0 0 
0 0 0 0 0 0 0 0 0 
0 0 0 0 0 0 0 0 0 
0 0 0 0 0 0 0 0 0 
0 0 0 0 0 0 0 0 0 
0 0 0 0 0 0 0 0 0 
0 0 0 0 0 0 0 0 0 
0 0 0 0 0 0 0 0 0 
0 0 0 0 0 0 0 0 0 
0 0 0 0 0 0 0 0 0 
0 0 0 0 0 0 0 0 0 
0 0 0 0 0 0 0 0 0 
0 0 0 0 0 0 0 0 0 
0 0 0 0 0 0 0 0 0 
0 0 0 0 0 0 0 0 0 
0 0 0 0 0 0 0 0 0 
0 0 0 0 0 0 0 0 0 
0 0 0 0 0 0 0 0 0 
0 0 0 0 0 0 0 0 0 
0 0 0 0 0 0 0 0 0 
0 0 0 0 0 0 0 0 0 
0 0 0 0 0 0 0 0 0 
0 0 0 0 0 0 0 0 0 
0 0 0 0 0 0 0 0 0 
0 0 0 0 0 0 0 0 0 
0 0 0 0 0 0 0 0 0 
0 0 0 0 0 0 0 0 0 
0 0 0 0 0 0 0 0 0 
0 0 0 0 0 0 0 0 0 
0 0 0 0 0 0 0 0 0 
0 0 0 0 0 0 0 0 0 
0 0 0 0 0 0 0 0 0 
0 0 0 0 0 0 0 0 0 
0 0 0 0 0 0 0 0 0 
0 0 0 0 0 0 0 0 0 
0 0 0 0 0 0 0 0 0 
0 0 0 0 0 0 0 0 0 
0 0 0 0 0 0 0 0 0 

POINT_DATA 2376
NORMALS Normals float
-0.571859 -0.70564 0.418389 -0.571859 -0.70564 0.418389 -0.571859 -0.70564 0.418389 
-0.0832259 -0.938867 -0.33407 -0.0832259 -0.938867 -0.33407 -0.0832259 -0.938867 -0.33407 
-0.0825713 -0.938531 -0.335175 -0.0825713 -0.938531 -0.335175 -0.0825713 -0.938531 -0.335175 
-0.167752 -0.985242 -0.0340101 -0.167752 -0.985242 -0.0340101 -0.167752 -0.985242 -0.0340101 
-0.167021 -0.98095 0.0992 -0.167021 -0.98095 0.0992 -0.167021 -0.98095 0.0992 
-0.0930817 -0.725643 0.681747 -0.0930817 -0.725643 0.681747 -0.0930817 -0.725643 0.681747 
0.27874 -0.955493 0.0966257 0.27874 -0.955493 0.0966257 0.27874 -0.955493 0.0966257 
0.278324 -0.954069 0.110847 0.278324 -0.954069 0.110847 0.278324 -0.954069 0.110847 
0.359007 -0.879328 -0.312885 0.359007 -0.879328 -0.312885 0.359007 -0.879328 -0.312885 
-0.433564 -0.899621 0.0520074 -0.433564 -0.899621 0.0520074 -0.433564 -0.899621 0.0520074 
-0.305616 -0.896688 -0.320232 -0.305616 -0.896688 -0.320232 -0.305616 -0.896688 -0.320232 
-0.382763 -0.794211 0.471933 -0.382763 -0.794211 0.471933 -0.382763 -0.794211 0.471933 
-0.334101 -0.694275 0.637463 -0.334101 -0.694275 0.637463 -0.334101 -0.694275 0.637463 
0.0252799 -0.768343 -0.639539 0.0252799 -0.768343 -0.639539 0.0252799 -0.768343 -0.639539 
-0.310812 -0.712245 0.629367 -0.310812 -0.712245 0.629367 -0.310812 -0.712245 0.629367 
-0.176496 -0.696139 0.695873 -0.176496 -0.696139 0.695873 -0.176496 -0.696139 0.695873 
0.188261 -0.574148 -0.796814 0.188261 -0.574148 -0.796814 0.188261 -0.574148 -0.796814 
0.168809 -0.679115 -0.714358 0.168809 -0.679115 -0.714358 0.168809 -0.679115 -0.714358 
0.343002 -0.778424 -0.525742 0.343002 -0.778424 -0.525742 0.343002 -0.778424 -0.525742 
0.376469 -0.854376 -0.358208 0.376469 -0.854376 -0.358208 0.376469 -0.854376 -0.358208 
0.352278 -0.891687 0.284244 0.352278 -0.891687 0.284244 0.352278 -0.891687 0.284244 
0.463836 -0.808553 -0.362075 0.463836 -0.808553 -0.362075 0.463836 -0.808553 -0.362075 
0.361136 -0.91411 0.184344 0.361136 -0.91411 0.184344 0.361136 -0.91411 0.184344 
-0.692149 -0.550262 -0.467056 -0.692149 -0.550262 -0.467056 -0.692149 -0.550262 -0.467056 
-0.782267 -0.621906 0.0359526 -0.782267 -0.621906 0.0359526 -0.782267 -0.621906 0.0359526 
-0.251494 -0.737891 -0.626313 -0.251494 -0.737891 -0.626313 -0.251494 -0.737891 -0.626313 
-0.116412 -0.602272 -0.789758 -0.116412 -0.602272 -0.789758 -0.116412 -0.602272 -0.789758 
-0.100392 -0.521491 -0.84733 -0.100392 -0.521491 -0.84733 -0.100392 -0.521491 -0.84733 
0.0560704 -0.658336 0.750633 0.0560704 -0.658336 0.750633 0.0560704 -0.658336 0.750633 
0.197814 -0.749173 0.632147 0.197814 -0.749173 0.632147 0.197814 -0.749173 0.632147 
0.489812 -0.853835 -0.176208 0.489812 -0.853835 -0.176208 0.489812 -0.853835 -0.176208 
-0.798689 -0.26764 -0.538948 -0.798689 -0.26764 -0.538948 -0.798689 -0.26764 -0.538948 
-0.884437 -0.365886 0.289653 -0.884437 -0.365886 0.289653 -0.884437 -0.365886 0.289653 
-0.819924 -0.339198 0.46116 -0.819924 -0.339198 0.46116 -0.819924 -0.339198 0.46116 
-0.511223 -0.509236 0.692337 -0.511223 -0.509236 0.692337 -0.511223 -0.509236 0.692337 
-0.436418 -0.340843 0.832686 -0.436418 -0.340843 0.832686 -0.436418 -0.340843 0.832686 
-0.421709 -0.249432 0.871749 -0.421709 -0.249432 0.871749 -0.421709 -0.249432 0.871749 
0.155323 -0.517778 -0.841297 0.155323 -0.517778 -0.841297 0.155323 -0.517778 -0.841297 
-0.238709 -0.239227 0.941163 -0.238709 -0.239227 0.941163 -0.238709 -0.239227 0.941163 
-0.199508 -0.269559 0.942091 -0.199508 -0.269559 0.942091 -0.199508 -0.269559 0.942091 
-0.213384 -0.246967 0.945238 -0.213384 -0.246967 0.945238 -0.213384 -0.246967 0.945238 
-0.119961 -0.336515 0.934006 -0.119961 -0.336515 0.934006 -0.119961 -0.336515 0.934006 
0.391061 -0.538046 -0.746711 0.391061 -0.538046 -0.746711 0.391061 -0.538046 -0.746711 
0.444971 -0.580725 -0.681733 0.444971 -0.580725 -0.681733 0.444971 -0.580725 -0.681733 
0.412042 -0.572445 -0.708892 0.412042 -0.572445 -0.708892 0.412042 -0.572445 -0.708892 
0.509002 -0.707152 -0.490768 0.509002 -0.707152 -0.490768 0.509002 -0.707152 -0.490768 
0.325146 -0.667377 0.669991 0.325146 -0.667377 0.669991 0.325146 -0.667377 0.669991 
-0.833626 -0.205848 -0.512537 -0.833626 -0.205848 -0.512537 -0.833626 -0.205848 -0.512537 
-0.960112 -0.237081 -0.148246 -0.960112 -0.237081 -0.148246 -0.960112 -0.237081 -0.148246 
-0.0685276 -0.443728 -0.893538 -0.0685276 -0.443728 -0.893538 -0.0685276 -0.443728 -0.893538 
-0.109705 -0.36139 -0.925939 -0.109705 -0.36139 -0.925939 -0.109705 -0.36139 -0.925939 
0.0681954 -0.362738 -0.929393 0.0681954 -0.362738 -0.929393 0.0681954 -0.362738 -0.929393 
0.132903 -0.418771 -0.898314 0.132903 -0.418771 -0.898314 0.132903 -0.418771 -0.898314 
0.645061 -0.627764 -0.435672 0.645061 -0.627764 -0.435672 0.645061 -0.627764 -0.435672 
0.714755 -0.684942 -0.141353 0.714755 -0.684942 -0.141353 0.714755 -0.684942 -0.141353 
0.674164 -0.736946 -0.0491343 0.674164 -0.736946 -0.0491343 0.674164 -0.736946 -0.0491343 
0.64259 -0.75109 0.151469 0.64259 -0.75109 0.151469 0.64259 -0.75109 0.151469 
0.58412 -0.682748 0.438929 0.58412 -0.682748 0.438929 0.58412 -0.682748 0.438929 
-0.749218 -0.0891048 -0.656303 -0.749218 -0.0891048 -0.656303 -0.749218 -0.0891048 -0.656303 
-0.434822 -0.0546663 0.898856 -0.434822 -0.0546663 0.898856 -0.434822 -0.0546663 0.898856 
-0.146044 -0.12699 -0.981094 -0.146044 -0.12699 -0.981094 -0.146044 -0.12699 -0.981094 
-0.137953 -0.133247 -0.981435 -0.137953 -0.133247 -0.981435 -0.137953 -0.133247 -0.981435 
-0.132187 -0.117679 -0.984215 -0.132187 -0.117679 -0.984215 -0.132187 -0.117679 -0.984215 
0.271619 -0.347702 -0.8974 0.271619 -0.347702 -0.8974 0.271619 -0.347702 -0.8974 
0.501032 -0.504468 -0.703192 0.501032 -0.504468 -0.703192 0.501032 -0.504468 -0.703192 
0.0693125 -0.249614 0.965862 0.0693125 -0.249614 0.965862 0.0693125 -0.249614 0.965862 
0.526042 -0.511937 -0.679118 0.526042 -0.511937 -0.679118 0.526042 -0.511937 -0.679118 
0.293248 -0.454359 0.841168 0.293248 -0.454359 0.841168 0.293248 -0.454359 0.841168 
0.580422 -0.634474 -0.510444 0.580422 -0.634474 -0.510444 0.580422 -0.634474 -0.510444 
-0.982643 0.0856794 0.164533 -0.982643 0.0856794 0.164533 -0.982643 0.0856794 0.164533 
-0.599152 0.0522417 0.798929 -0.599152 0.0522417 0.798929 -0.599152 0.0522417 0.798929 
-0.709036 -0.0428079 0.703872 -0.709036 -0.0428079 0.703872 -0.709036 -0.0428079 0.703872 
-0.413905 -0.00150901 0.910319 -0.413905 -0.00150901 0.910319 -0.413905 -0.00150901 0.910319 
0.00295173 -0.172811 -0.984951 0.00295173 -0.172811 -0.984951 0.00295173 -0.172811 -0.984951 
-0.356738 -0.0245717 0.933881 -0.356738 -0.0245717 0.933881 -0.356738 -0.0245717 0.933881 
0.326626 -0.3635 -0.872458 0.326626 -0.3635 -0.872458 0.326626 -0.3635 -0.872458 
0.0707574 -0.151016 0.985996 0.0707574 -0.151016 0.985996 0.0707574 -0.151016 0.985996 
0.682244 -0.453706 0.573318 0.682244 -0.453706 0.573318 0.682244 -0.453706 0.573318 
0.653363 -0.450003 0.608781 0.653363 -0.450003 0.608781 0.653363 -0.450003 0.608781 
0.567939 -0.391167 0.724178 0.567939 -0.391167 0.724178 0.567939 -0.391167 0.724178 
0.842223 -0.535623 -0.0613828 0.842223 -0.535623 -0.0613828 0.842223 -0.535623 -0.0613828 
0.827224 -0.550121 -0.114313 0.827224 -0.550121 -0.114313 0.827224 -0.550121 -0.114313 
-0.695642 0.197954 0.690576 -0.695642 0.197954 0.690576 -0.695642 0.197954 0.690576 
-0.320654 0.162529 -0.933148 -0.320654 0.162529 -0.933148 -0.320654 0.162529 -0.933148 
-0.406252 0.191417 0.893487 -0.406252 0.191417 0.893487 -0.406252 0.191417 0.893487 
-0.298599 0.104806 0.948606 -0.298599 0.104806 0.948606 -0.298599 0.104806 0.948606 
-0.219943 0.0488014 0.974291 -0.219943 0.0488014 0.974291 -0.219943 0.0488014 0.974291 
-0.150271 0.0739005 0.985879 -0.150271 0.0739005 0.985879 -0.150271 0.0739005 0.985879 
0.263295 -0.146054 0.953595 0.263295 -0.146054 0.953595 0.263295 -0.146054 0.953595 
0.452378 -0.24105 0.858632 0.452378 -0.24105 0.858632 0.452378 -0.24105 0.858632 
0.735714 -0.523643 -0.429562 0.735714 -0.523643 -0.429562 0.735714 -0.523643 -0.429562 
-0.573906 0.347622 -0.741479 -0.573906 0.347622 -0.741479 -0.573906 0.347622 -0.741479 
-0.774762 0.418468 0.47395 -0.774762 0.418468 0.47395 -0.774762 0.418468 0.47395 
-0.753392 0.289556 -0.590388 -0.753392 0.289556 -0.590388 -0.753392 0.289556 -0.590388 
-0.347548 0.228384 0.909423 -0.347548 0.228384 0.909423 -0.347548 0.228384 0.909423 
0.0749305 -0.154535 -0.985142 0.0749305 -0.154535 -0.985142 0.0749305 -0.154535 -0.985142 
-0.350045 0.231153 0.907765 -0.350045 0.231153 0.907765 -0.350045 0.231153 0.907765 
0.317318 -0.299707 -0.899714 0.317318 -0.299707 -0.899714 0.317318 -0.299707 -0.899714 
0.325777 -0.364116 -0.872519 0.325777 -0.364116 -0.872519 0.325777 -0.364116 -0.872519 
0.461803 -0.413372 -0.784769 0.461803 -0.413372 -0.784769 0.461803 -0.413372 -0.784769 
0.64398 -0.46052 -0.61091 0.64398 -0.46052 -0.61091 0.64398 -0.46052 -0.61091 
0.738782 -0.528315 -0.418431 0.738782 -0.528315 -0.418431 0.738782 -0.528315 -0.418431 
-0.870464 0.470159 0.14575 -0.870464 0.470159 0.14575 -0.870464 0.470159 0.14575 
-0.855323 0.518079 -0.00394911 -0.855323 0.518079 -0.00394911 -0.855323 0.518079 -0.00394911 
-0.706297 0.359699 -0.609722 -0.706297 0.359699 -0.609722 -0.706297 0.359699 -0.609722 
-0.296977 0.209401 -0.931642 -0.296977 0.209401 -0.931642 -0.296977 0.209401 -0.931642 
-0.398808 0.252692 0.881532 -0.398808 0.252692 0.881532 -0.398808 0.252692 0.881532 
-0.430271 0.324963 0.842179 -0.430271 0.324963 0.842179 -0.430271 0.324963 0.842179 
-0.217931 0.0608047 -0.974068 -0.217931 0.0608047 -0.974068 -0.217931 0.0608047 -0.974068 
0.0539961 -0.233121 -0.970948 0.0539961 -0.233121 -0.970948 0.0539961 -0.233121 -0.970948 
-0.30887 0.219379 0.925458 -0.30887 0.219379 0.925458 -0.30887 0.219379 0.925458 
0.201309 -0.00932563 0.979483 0.201309 -0.00932563 0.979483 0.201309 -0.00932563 0.979483 
0.794516 -0.350228 0.49607 0.794516 -0.350228 0.49607 0.794516 -0.350228 0.49607 
0.601 -0.0455068 0.797952 0.601 -0.0455068 0.797952 0.601 -0.0455068 0.797952 
0.778203 -0.593549 -0.205184 0.778203 -0.593549 -0.205184 0.778203 -0.593549 -0.205184 
0.863904 -0.49637 0.0853615 0.863904 -0.49637 0.0853615 0.863904 -0.49637 0.0853615 
0.797698 -0.35163 0.489933 0.797698 -0.35163 0.489933 0.797698 -0.35163 0.489933 
-0.532636 0.710547 -0.459806 -0.532636 0.710547 -0.459806 -0.532636 0.710547 -0.459806 
-0.567169 0.814393 0.122817 -0.567169 0.814393 0.122817 -0.567169 0.814393 0.122817 
-0.418614 0.601085 0.680778 -0.418614 0.601085 0.680778 -0.418614 0.601085 0.680778 
-0.438629 0.456623 -0.774016 -0.438629 0.456623 -0.774016 -0.438629 0.456623 -0.774016 
-0.448227 0.667519 -0.594568 -0.448227 0.667519 -0.594568 -0.448227 0.667519 -0.594568 
-0.37252 0.230521 -0.898938 -0.37252 0.230521 -0.898938 -0.37252 0.230521 -0.898938 
-0.388507 0.339558 0.8566 -0.388507 0.339558 0.8566 -0.388507 0.339558 0.8566 
0.186646 -0.164969 -0.968477 0.186646 -0.164969 -0.968477 0.186646 -0.164969 -0.968477 
-0.15048 0.051872 0.987251 -0.15048 0.051872 0.987251 -0.15048 0.051872 0.987251 
0.517946 -0.372766 -0.76992 0.517946 -0.372766 -0.76992 0.517946 -0.372766 -0.76992 
0.647915 -0.466304 -0.602302 0.647915 -0.466304 -0.602302 0.647915 -0.466304 -0.602302 
0.637268 -0.295277 0.711829 0.637268 -0.295277 0.711829 0.637268 -0.295277 0.711829 
-0.583407 0.778277 0.232208 -0.583407 0.778277 0.232208 -0.583407 0.778277 0.232208 
-0.458941 0.62337 0.633074 -0.458941 0.62337 0.633074 -0.458941 0.62337 0.633074 
-0.423537 0.529866 0.734751 -0.423537 0.529866 0.734751 -0.423537 0.529866 0.734751 
-0.453151 0.535584 0.712604 -0.453151 0.535584 0.712604 -0.453151 0.535584 0.712604 
-0.166612 0.114555 -0.979346 -0.166612 0.114555 -0.979346 -0.166612 0.114555 -0.979346 
-0.400399 0.356966 0.843953 -0.400399 0.356966 0.843953 -0.400399 0.356966 0.843953 
-0.0302604 0.0220904 -0.999298 -0.0302604 0.0220904 -0.999298 -0.0302604 0.0220904 -0.999298 
-0.0489771 0.155041 0.986693 -0.0489771 0.155041 0.986693 -0.0489771 0.155041 0.986693 
0.352467 -0.234696 -0.905917 0.352467 -0.234696 -0.905917 0.352467 -0.234696 -0.905917 
-0.119685 0.154111 0.980778 -0.119685 0.154111 0.980778 -0.119685 0.154111 0.980778 
0.37588 -0.243842 -0.894011 0.37588 -0.243842 -0.894011 0.37588 -0.243842 -0.894011 
0.328587 0.129801 0.935512 0.328587 0.129801 0.935512 0.328587 0.129801 0.935512 
-0.611734 0.590713 -0.526156 -0.611734 0.590713 -0.526156 -0.611734 0.590713 -0.526156 
-0.355845 0.343617 -0.869081 -0.355845 0.343617 -0.869081 -0.355845 0.343617 -0.869081 
-0.480886 0.322379 -0.815366 -0.480886 0.322379 -0.815366 -0.480886 0.322379 -0.815366 
-0.222955 0.204287 -0.953183 -0.222955 0.204287 -0.953183 -0.222955 0.204287 -0.953183 
-0.461369 0.450724 0.76419 -0.461369 0.450724 0.76419 -0.461369 0.450724 0.76419 
0.189155 -0.0296073 -0.981501 0.189155 -0.0296073 -0.981501 0.189155 -0.0296073 -0.981501 
-0.302502 0.424379 0.853461 -0.302502 0.424379 0.853461 -0.302502 0.424379 0.853461 
-0.24305 0.287003 0.926583 -0.24305 0.287003 0.926583 -0.24305 0.287003 0.926583 
0.165292 -0.0380842 -0.985509 0.165292 -0.0380842 -0.985509 0.165292 -0.0380842 -0.985509 
-0.131804 0.236751 0.962588 -0.131804 0.236751 0.962588 -0.131804 0.236751 0.962588 
0.0930828 -0.00839388 -0.995623 0.0930828 -0.00839388 -0.995623 0.0930828 -0.00839388 -0.995623 
0.513653 -0.364135 -0.776895 0.513653 -0.364135 -0.776895 0.513653 -0.364135 -0.776895 
0.331024 -0.0470329 0.942449 0.331024 -0.0470329 0.942449 0.331024 -0.0470329 0.942449 
0.240378 0.0782133 0.967523 0.240378 0.0782133 0.967523 0.240378 0.0782133 0.967523 
0.627374 -0.339574 0.700778 0.627374 -0.339574 0.700778 0.627374 -0.339574 0.700778 
0.800464 -0.433262 0.414176 0.800464 -0.433262 0.414176 0.800464 -0.433262 0.414176 
-0.577171 0.65778 -0.483941 -0.577171 0.65778 -0.483941 -0.577171 0.65778 -0.483941 
-0.469409 0.881415 -0.052559 -0.469409 0.881415 -0.052559 -0.469409 0.881415 -0.052559 
-0.428477 0.804557 0.411212 -0.428477 0.804557 0.411212 -0.428477 0.804557 0.411212 
-0.377686 0.777183 0.503328 -0.377686 0.777183 0.503328 -0.377686 0.777183 0.503328 
-0.241124 0.781722 -0.575126 -0.241124 0.781722 -0.575126 -0.241124 0.781722 -0.575126 
-0.616718 0.660258 0.428625 -0.616718 0.660258 0.428625 -0.616718 0.660258 0.428625 
-0.4979 0.632678 0.593139 -0.4979 0.632678 0.593139 -0.4979 0.632678 0.593139 
-0.21091 0.377457 -0.901689 -0.21091 0.377457 -0.901689 -0.21091 0.377457 -0.901689 
0.0529323 0.0643128 -0.996525 0.0529323 0.0643128 -0.996525 0.0529323 0.0643128 -0.996525 
-0.406994 0.503541 0.762104 -0.406994 0.503541 0.762104 -0.406994 0.503541 0.762104 
-0.304594 0.410754 0.859362 -0.304594 0.410754 0.859362 -0.304594 0.410754 0.859362 
0.618236 -0.314695 0.720244 0.618236 -0.314695 0.720244 0.618236 -0.314695 0.720244 
0.614323 -0.477167 -0.628426 0.614323 -0.477167 -0.628426 0.614323 -0.477167 -0.628426 
0.7171 -0.556998 -0.418953 0.7171 -0.556998 -0.418953 0.7171 -0.556998 -0.418953 
0.772185 -0.601896 -0.203597 0.772185 -0.601896 -0.203597 0.772185 -0.601896 -0.203597 
0.786321 -0.612914 0.0776956 0.786321 -0.612914 0.0776956 0.786321 -0.612914 0.0776956 
-0.517201 0.580868 -0.628566 -0.517201 0.580868 -0.628566 -0.517201 0.580868 -0.628566 
-0.445843 0.836224 -0.319301 -0.445843 0.836224 -0.319301 -0.445843 0.836224 -0.319301 
-0.469821 0.881196 -0.0525514 -0.469821 0.881196 -0.0525514 -0.469821 0.881196 -0.0525514 
-0.534824 0.78434 0.314285 -0.534824 0.78434 0.314285 -0.534824 0.78434 0.314285 
-0.271736 0.506012 -0.818603 -0.271736 0.506012 -0.818603 -0.271736 0.506012 -0.818603 
-0.0114833 0.747188 -0.664514 -0.0114833 0.747188 -0.664514 -0.0114833 0.747188 -0.664514 
-0.507756 0.619544 0.598623 -0.507756 0.619544 0.598623 -0.507756 0.619544 0.598623 
-0.0561167 0.385535 -0.920985 -0.0561167 0.385535 -0.920985 -0.0561167 0.385535 -0.920985 
-0.0235529 0.288855 -0.957083 -0.0235529 0.288855 -0.957083 -0.0235529 0.288855 -0.957083 
-0.195414 0.492732 -0.847956 -0.195414 0.492732 -0.847956 -0.195414 0.492732 -0.847956 
-0.256636 0.416802 0.872017 -0.256636 0.416802 0.872017 -0.256636 0.416802 0.872017 
-0.126883 0.353879 0.926645 -0.126883 0.353879 0.926645 -0.126883 0.353879 0.926645 
0.0493979 0.237787 0.97006 0.0493979 0.237787 0.97006 0.0493979 0.237787 0.97006 
-0.220238 0.382336 0.897393 -0.220238 0.382336 0.897393 -0.220238 0.382336 0.897393 
-0.082145 0.273024 0.958494 -0.082145 0.273024 0.958494 -0.082145 0.273024 0.958494 
0.618156 -0.314693 0.720314 0.618156 -0.314693 0.720314 0.618156 -0.314693 0.720314 
0.79193 -0.560666 0.241867 0.79193 -0.560666 0.241867 0.79193 -0.560666 0.241867 
0.714119 -0.505578 0.484175 0.714119 -0.505578 0.484175 0.714119 -0.505578 0.484175 
-0.467525 0.882926 -0.0431602 -0.467525 0.882926 -0.0431602 -0.467525 0.882926 -0.0431602 
-0.372985 0.693315 -0.616601 -0.372985 0.693315 -0.616601 -0.372985 0.693315 -0.616601 
-0.335898 0.68489 -0.646605 -0.335898 0.68489 -0.646605 -0.335898 0.68489 -0.646605 
-0.0670734 0.308607 -0.948822 -0.0670734 0.308607 -0.948822 -0.0670734 0.308607 -0.948822 
0.209324 0.0106532 0.977788 0.209324 0.0106532 0.977788 0.209324 0.0106532 0.977788 
0.493803 -0.389921 -0.777252 0.493803 -0.389921 -0.777252 0.493803 -0.389921 -0.777252 
0.618506 -0.48839 -0.61557 0.618506 -0.48839 -0.61557 0.618506 -0.48839 -0.61557 
0.618858 -0.285868 0.731639 0.618858 -0.285868 0.731639 0.618858 -0.285868 0.731639 
0.785981 -0.56138 -0.25901 0.785981 -0.56138 -0.25901 0.785981 -0.56138 -0.25901 
0.763695 -0.545462 -0.345313 0.763695 -0.545462 -0.345313 0.763695 -0.545462 -0.345313 
-0.573084 0.81852 -0.0400118 -0.573084 0.81852 -0.0400118 -0.573084 0.81852 -0.0400118 
-0.450831 0.838016 -0.307377 -0.450831 0.838016 -0.307377 -0.450831 0.838016 -0.307377 
-0.58451 0.771358 0.251706 -0.58451 0.771358 0.251706 -0.58451 0.771358 0.251706 
-0.523119 0.690343 0.499772 -0.523119 0.690343 0.499772 -0.523119 0.690343 0.499772 
0.0358758 0.919686 -0.391013 0.0358758 0.919686 -0.391013 0.0358758 0.919686 -0.391013 
-0.435456 0.600386 0.670757 -0.435456 0.600386 0.670757 -0.435456 0.600386 0.670757 
-0.230814 0.244262 -0.941839 -0.230814 0.244262 -0.941839 -0.230814 0.244262 -0.941839 
-0.0705136 -0.00679213 -0.997488 -0.0705136 -0.00679213 -0.997488 -0.0705136 -0.00679213 -0.997488 