# vtk DataFile Version 4.2
3D Slicer output. SPACE=LPS
ASCII
DATASET POLYDATA
POINTS 2676 double
5.7543935776 -4.3142385483 0.09850692749 3.7036170959 -3.7163734436 0.9211359024 1.6926546097 -3.1526112556 0.09850692749 
2.5050024986 -3.4740390778 -0.7241230011 5.7543935776 -2.9221177101 -1.6179885864 5.7543935776 -4.3142385483 0.09850692749 
5.7543935776 -4.3142385483 0.09850692749 5.7543935776 -4.3547110558 0.9211359024 3.7036170959 -3.7163734436 0.9211359024 
8.1914377213 -3.4485063553 -0.7241230011 5.7543935776 -4.3142385483 0.09850692749 5.7543935776 -2.9221177101 -1.6179885864 
5.7543935776 -4.3142385483 0.09850692749 8.1914377213 -4.4103326797 0.9211359024 5.7543935776 -4.3547110558 0.9211359024 
8.1914377213 -4.4103326797 0.9211359024 8.1914377213 -4.3889017105 1.7437648773 5.7543935776 -4.3547110558 0.9211359024 
3.7036170959 -3.7163734436 0.9211359024 5.7543935776 -4.3547110558 0.9211359024 8.1914377213 -3.9327507019 2.5663938522 
8.1914377213 -3.9327507019 2.5663938522 5.7543935776 -4.3547110558 0.9211359024 8.1914377213 -4.3889017105 1.7437648773 
8.1914377213 -3.4485063553 -0.7241230011 8.1914377213 -4.4103326797 0.9211359024 5.7543935776 -4.3142385483 0.09850692749 
8.1914377213 -4.3889017105 1.7437648773 9.8161325455 -3.5943021774 2.5663938522 8.1914377213 -3.9327507019 2.5663938522 
8.1914377213 -4.3889017105 1.7437648773 8.1914377213 -4.4103326797 0.9211359024 11.440828323 -3.0034871101 1.7437648773 
0.88338422775 -1.3336062431 -0.7241230011 2.5050024986 -3.4740390778 -0.7241230011 1.6926546097 -3.1526112556 0.09850692749 
1.6926546097 -3.1526112556 0.09850692749 2.5050024986 -3.4740390778 -0.7241230011 5.7543935776 -4.3142385483 0.09850692749 
3.7036170959 -3.7163734436 0.9211359024 2.0517630577 -2.9221177101 0.9211359024 1.6926546097 -3.1526112556 0.09850692749 
2.0517630577 -2.9221177101 0.9211359024 3.7036170959 -3.7163734436 0.9211359024 6.5667419434 -2.9221177101 2.9872255325 
6.5667419434 -2.9221177101 2.9872255325 3.7036170959 -3.7163734436 0.9211359024 8.1914377213 -3.9327507019 2.5663938522 
9.0037851334 -3.008430481 3.3890228271 6.5667419434 -2.9221177101 2.9872255325 8.1914377213 -3.9327507019 2.5663938522 
9.8161325455 -3.5943021774 2.5663938522 9.0037851334 -3.008430481 3.3890228271 8.1914377213 -3.9327507019 2.5663938522 
10.628480911 -2.1278619766 -0.65376091003 11.440828323 -2.7599892616 0.9211359024 8.1914377213 -3.4485063553 -0.7241230011 
8.1914377213 -3.4485063553 -0.7241230011 11.440828323 -2.7599892616 0.9211359024 8.1914377213 -4.4103326797 0.9211359024 
8.1914377213 -4.4103326797 0.9211359024 11.440828323 -2.7599892616 0.9211359024 11.440828323 -3.0034871101 1.7437648773 
11.440828323 -3.0034871101 1.7437648773 9.8161325455 -3.5943021774 2.5663938522 8.1914377213 -4.3889017105 1.7437648773 
11.440828323 -3.0034871101 1.7437648773 13.065525055 -1.9604797363 2.5663938522 9.8161325455 -3.5943021774 2.5663938522 
1.6926546097 -2.1643762589 -1.546751976 2.5050024986 -3.4740390778 -0.7241230011 0.88338422775 -1.3336062431 -0.7241230011 
1.6926546097 -3.1526112556 0.09850692749 0.67629051208 -1.3336062431 0.09850692749 0.88338422775 -1.3336062431 -0.7241230011 
1.6926546097 -3.1526112556 0.09850692749 2.0517630577 -2.9221177101 0.9211359024 0.67629051208 -1.3336062431 0.09850692749 
1.6926546097 -2.1643762589 -1.546751976 2.5050024986 -1.3336062431 -2.0384025574 2.5050024986 -3.4740390778 -0.7241230011 
1.6926546097 -1.3336062431 1.4872264862 2.0517630577 -2.9221177101 0.9211359024 6.5667419434 -2.9221177101 2.9872255325 
5.7543935776 -2.9221177101 -1.6179885864 2.5050024986 -3.4740390778 -0.7241230011 2.5050024986 -1.3336062431 -2.0384025574 
5.7543935776 -2.9221177101 -1.6179885864 2.5050024986 -1.3336062431 -2.0384025574 4.9420461655 -1.3336062431 -2.3964986801 
1.6926546097 -1.3336062431 1.4872264862 6.5667419434 -2.9221177101 2.9872255325 5.7543935776 -1.3336062431 3.2060117722 
7.3790893555 -1.3336062431 -2.3323845863 5.7543935776 -2.9221177101 -1.6179885864 4.9420461655 -1.3336062431 -2.3964986801 
9.8161325455 -1.5466952324 -1.546751976 5.7543935776 -2.9221177101 -1.6179885864 7.3790893555 -1.3336062431 -2.3323845863 
8.1914377213 -3.4485063553 -0.7241230011 5.7543935776 -2.9221177101 -1.6179885864 9.8161325455 -1.5466952324 -1.546751976 
5.7543935776 -1.3336062431 3.2060117722 6.5667419434 -2.9221177101 2.9872255325 9.0037851334 -3.008430481 3.3890228271 
8.1914377213 -3.4485063553 -0.7241230011 9.8161325455 -1.5466952324 -1.546751976 10.628480911 -2.1278619766 -0.65376091003 
13.065525055 -1.9604797363 2.5663938522 12.253175735 -2.0823636055 3.3890228271 9.8161325455 -3.5943021774 2.5663938522 
9.0037851334 -3.008430481 3.3890228271 9.8161325455 -3.5943021774 2.5663938522 12.253175735 -2.0823636055 3.3890228271 
13.403348923 -1.3336062431 0.9211359024 11.440828323 -3.0034871101 1.7437648773 11.440828323 -2.7599892616 0.9211359024 
13.065525055 -1.9604797363 2.5663938522 11.440828323 -3.0034871101 1.7437648773 13.403348923 -1.3336062431 0.9211359024 
1.6926546097 -2.1643762589 -1.546751976 0.88338422775 -1.3336062431 -0.7241230011 0.57288360596 0.25490570068 -0.7241230011 
0.67629051208 -1.3336062431 0.09850692749 2.0517630577 -2.9221177101 0.9211359024 1.6926546097 -1.3336062431 1.4872264862 
11.440828323 -1.4284143448 4.2116518021 9.0037851334 -3.008430481 3.3890228271 12.253175735 -2.0823636055 3.3890228271 
10.628480911 -2.1278619766 -0.65376091003 13.877872467 -0.14482784271 0.09850692749 13.403348923 -1.3336062431 0.9211359024 
10.628480911 -2.1278619766 -0.65376091003 13.403348923 -1.3336062431 0.9211359024 11.440828323 -2.7599892616 0.9211359024 
12.253175735 -2.0823636055 3.3890228271 13.065525055 -1.9604797363 2.5663938522 13.877872467 -0.53935050964 4.108420372 
11.440828323 -1.4284143448 4.2116518021 12.253175735 -2.0823636055 3.3890228271 13.877872467 -0.53935050964 4.108420372 
0.88338422775 -1.3336062431 -0.7241230011 0.67629051208 -1.3336062431 0.09850692749 0.080857276917 0.25490570068 0.09850692749 
1.6926546097 -0.53935050964 -1.9142351151 1.6926546097 -2.1643762589 -1.546751976 0.57288360596 0.25490570068 -0.7241230011 
0.080857276917 0.25490570068 0.09850692749 0.67629051208 -1.3336062431 0.09850692749 1.6926546097 -1.3336062431 1.4872264862 
2.5050024986 -1.3336062431 -2.0384025574 1.6926546097 -2.1643762589 -1.546751976 1.6926546097 -0.53935050964 -1.9142351151 
4.9420461655 -1.3336062431 -2.3964986801 2.5050024986 -1.3336062431 -2.0384025574 4.9420461655 0.25490570068 -2.8195438385 
4.1296977997 -0.53935050964 2.5482196808 1.6926546097 -1.3336062431 1.4872264862 5.7543935776 -1.3336062431 3.2060117722 
7.3790893555 -1.3336062431 -2.3323845863 4.9420461655 -1.3336062431 -2.3964986801 4.9420461655 0.25490570068 -2.8195438385 
9.8161325455 0.25490570068 4.5935411453 5.7543935776 -1.3336062431 3.2060117722 9.0037851334 -3.008430481 3.3890228271 
9.8161325455 0.25490570068 4.5935411453 9.0037851334 -3.008430481 3.3890228271 11.440828323 -1.4284143448 4.2116518021 
12.253175735 0.25490570068 -1.4311237335 10.628480911 -2.1278619766 -0.65376091003 9.8161325455 -1.5466952324 -1.546751976 
10.628480911 -2.1278619766 -0.65376091003 12.253175735 0.25490570068 -1.4311237335 13.877872467 -0.14482784271 0.09850692749 
11.440828323 -1.4284143448 4.2116518021 13.877872467 -0.53935050964 4.108420372 13.065525055 0.25490570068 4.778213501 
13.403348923 -1.3336062431 0.9211359024 14.690219879 -0.64405632019 2.5663938522 13.065525055 -1.9604797363 2.5663938522 
14.690219879 -0.64405632019 2.5663938522 13.877872467 -0.53935050964 4.108420372 13.065525055 -1.9604797363 2.5663938522 
0.88338422775 -1.3336062431 -0.7241230011 0.080857276917 0.25490570068 0.09850692749 0.57288360596 0.25490570068 -0.7241230011 
4.1296977997 -0.53935050964 2.5482196808 1.6926546097 1.049161911 1.6846475601 1.6926546097 -1.3336062431 1.4872264862 
4.9420461655 0.25490570068 -2.8195438385 2.5050024986 -1.3336062431 -2.0384025574 1.6926546097 -0.53935050964 -1.9142351151 
7.3790893555 -1.3336062431 -2.3323845863 4.9420461655 0.25490570068 -2.8195438385 6.5667419434 1.8434171677 -3.2858228683 
5.7543935776 -1.3336062431 3.2060117722 7.3790893555 1.049161911 3.9443435669 4.1296977997 -0.53935050964 2.5482196808 
7.3790893555 1.049161911 3.9443435669 9.8161325455 0.25490570068 4.5935411453 10.628480911 3.4319286346 4.6594657898 
7.3790893555 1.049161911 3.9443435669 5.7543935776 -1.3336062431 3.2060117722 9.8161325455 0.25490570068 4.5935411453 
9.8161325455 -1.5466952324 -1.546751976 7.3790893555 -1.3336062431 -2.3323845863 9.0037851334 0.25490570068 -2.7148222923 
11.440828323 1.8434171677 4.965004921 9.8161325455 0.25490570068 4.5935411453 11.440828323 -1.4284143448 4.2116518021 
13.403348923 -1.3336062431 0.9211359024 13.877872467 -0.14482784271 0.09850692749 15.813646317 1.049161911 1.7437648773 
14.690219879 -0.64405632019 2.5663938522 13.403348923 -1.3336062431 0.9211359024 15.813646317 1.049161911 1.7437648773 
13.877872467 -0.53935050964 4.108420372 14.690219879 -0.64405632019 2.5663938522 15.502567291 0.58192920685 3.3890228271 
1.5016818047 1.8434171677 -1.546751976 1.6926546097 -0.53935050964 -1.9142351151 0.57288360596 0.25490570068 -0.7241230011 
0.44745969772 1.049161911 0.09850692749 0.080857276917 0.25490570068 0.09850692749 1.6926546097 1.049161911 1.6846475601 
1.6926546097 1.049161911 1.6846475601 0.080857276917 0.25490570068 0.09850692749 1.6926546097 -1.3336062431 1.4872264862 
4.9420461655 1.8434171677 -3.0129289627 4.9420461655 0.25490570068 -2.8195438385 1.6926546097 -0.53935050964 -1.9142351151 
1.6926546097 1.049161911 1.6846475601 4.1296977997 -0.53935050964 2.5482196808 3.3173503876 1.8434171677 2.078338623 
6.5667419434 1.8434171677 -3.2858228683 4.9420461655 0.25490570068 -2.8195438385 4.9420461655 1.8434171677 -3.0129289627 
7.3790893555 1.049161911 3.9443435669 3.3173503876 1.8434171677 2.078338623 4.1296977997 -0.53935050964 2.5482196808 
[...]
CELL_DATA 892
FIELD FieldData 1
GroupIds 1 892 float
0 0 0 0 0 0 0 0 0 
0 0 0 0 0 0 0 0 0 
0 0 0 0 0 0 0 0 0 
0 0 0 0 0 0 0 0 0 
0 0 0 0 0 0 0 0 0 
0 0 0 0 0 0 0 0 0 
0 0 0 0 0 0 0 0 0 
0 0 0 0 0 0 0 0 0 
0 0 0 0 0 0 0 0 0 
0 0 0 0 0 0 0 0 0 
0 0 0 0 0 0 0 0 0 
0 0 0 0 0 0 0 0 0 
0 0 0 0 0 0 0 0 0 
0 0 0 0 0 0 0 0 0 
0 0 0 0 0 0 0 0 0 
0 0 0 0 0 0 0 0 0 
0 0 0 0 0 0 0 0 0 
0 0 0 0 0 0 0 0 0 
0 0 0 0 0 0 0 0 0 
0 0 0 0 0 0 0 0 0 
0 0 0 0 0 0 0 0 0 
0 0 0 0 0 0 0 0 0 
0 0 0 0 0 0 0 0 0 
0 0 0 0 0 0 0 0 0 
0 0 0 0 0 0 0 0 0 
0 0 0 0 0 0 0 0 0 
0 0 0 0 0 0 0 0 0 
0 0 0 0 0 0 0 0 0 
0 0 0 0 0 0 0 0 0 
0 0 0 0 0 0 0 0 0 
0 0 0 0 0 0 0 0 0 
0 0 0 0 0 0 0 0 0 
0 0 0 0 0 0 0 0 0 
0 0 0 0 0 0 0 0 0 
0 0 0 0 0 0 0 0 0 
0 0 0 0 0 0 0 0 0 
0 0 0 0 0 0 0 0 0 
0 0 0 0 0 0 0 0 0 
0 0 0 0 0 0 0 0 0 
0 0 0 0 0 0 0 0 0 
0 0 0 0 0 0 0 0 0 
0 0 0 0 0 0 0 0 0 
0 0 0 0 0 0 0 0 0 
0 0 0 0 0 0 0 0 0 
0 0 0 0 0 0 0 0 0 
0 0 0 0 0 0 0 0 0 
0 0 0 0 0 0 0 0 0 
0 0 0 0 0 0 0 0 0 
0 0 0 0 0 0 0 0 0 
0 0 0 0 0 0 0 0 0 
0 0 0 0 0 0 0 0 0 
0 0 0 0 0 0 0 0 0 
0 0 0 0 0 0 0 0 0 
0 0 0 0 0 0 0 0 0 
0 0 0 0 0 0 0 0 0 
0 0 0 0 0 0 0 0 0 
0 0 0 0 0 0 0 0 0 
0 0 0 0 0 0 0 0 0 
0 0 0 0 0 0 0 0 0 
0 0 0 0 0 0 0 0 0 
0 0 0 0 0 0 0 0 0 
0 0 0 0 0 0 0 0 0 
0 0 0 0 0 0 0 0 0 
0 0 0 0 0 0 0 0 0 
0 0 0 0 0 0 0 0 0 
0 0 0 0 0 0 0 0 0 
0 0 0 0 0 0 0 0 0 
0 0 0 0 0 0 0 0 0 
0 0 0 0 0 0 0 0 0 
0 0 0 0 0 0 0 0 0 
0 0 0 0 0 0 0 0 0 
0 0 0 0 0 0 0 0 0 
0 0 0 0 0 0 0 0 0 
0 0 0 0 0 0 0 0 0 
0 0 0 0 0 0 0 0 0 
0 0 0 0 0 0 0 0 0 
0 0 0 0 0 0 0 0 0 
0 0 0 0 0 0 0 0 0 
0 0 0 0 0 0 0 0 0 
0 0 0 0 0 0 0 0 0 
0 0 0 0 0 0 0 0 0 
0 0 0 0 0 0 0 0 0 
0 0 0 0 0 0 0 0 0 
0 0 0 0 0 0 0 0 0 
0 0 0 0 0 0 0 0 0 
0 0 0 0 0 0 0 0 0 
0 0 0 0 0 0 0 0 0 
0 0 0 0 0 0 0 0 0 
0 0 0 0 0 0 0 0 0 
0 0 0 0 0 0 0 0 0 
0 0 0 0 0 0 0 0 0 
0 0 0 0 0 0 0 0 0 
0 0 0 0 0 0 0 0 0 
0 0 0 0 0 0 0 0 0 
0 0 0 0 0 0 0 0 0 
0 0 0 0 0 0 0 0 0 
0 0 0 0 0 0 0 0 0 
0 0 0 0 0 0 0 0 0 
0 0 0 0 0 0 0 0 0 
0 
POINT_DATA 2676
NORMALS Normals float
-0.274944 -0.961369 0.0132738 -0.274944 -0.961369 0.0132738 -0.274944 -0.961369 0.0132738 
-0.0413216 -0.776011 -0.629364 -0.0413216 -0.776011 -0.629364 -0.0413216 -0.776011 -0.629364 
-0.296874 -0.953763 -0.0469242 -0.296874 -0.953763 -0.0469242 -0.296874 -0.953763 -0.0469242 
0.0631534 -0.775124 -0.628645 0.0631534 -0.775124 -0.628645 0.0631534 -0.775124 -0.628645 
-0.0227899 -0.998533 -0.0491268 -0.0227899 -0.998533 -0.0491268 -0.0227899 -0.998533 -0.0491268 
-0.0228097 -0.999401 0.0260362 -0.0228097 -0.999401 0.0260362 -0.0228097 -0.999401 0.0260362 
-0.24518 -0.787684 0.565191 -0.24518 -0.787684 0.565191 -0.24518 -0.787684 0.565191 
-0.1733 -0.861315 0.477602 -0.1733 -0.861315 0.477602 -0.1733 -0.861315 0.477602 
0.135069 -0.85539 -0.500065 0.135069 -0.85539 -0.500065 0.135069 -0.85539 -0.500065 
0.179231 -0.860386 0.477087 0.179231 -0.860386 0.477087 0.179231 -0.860386 0.477087 
0.392089 -0.919616 0.0239576 0.392089 -0.919616 0.0239576 0.392089 -0.919616 0.0239576 
-0.69807 -0.528866 -0.4827 -0.69807 -0.528866 -0.4827 -0.69807 -0.528866 -0.4827 
-0.27349 -0.956282 0.103579 -0.27349 -0.956282 0.103579 -0.27349 -0.956282 0.103579 
-0.396393 -0.824398 0.40403 -0.396393 -0.824398 0.40403 -0.396393 -0.824398 0.40403 
-0.314646 -0.654385 0.687589 -0.314646 -0.654385 0.687589 -0.314646 -0.654385 0.687589 
-0.272604 -0.709044 0.650341 -0.272604 -0.709044 0.650341 -0.272604 -0.709044 0.650341 
-0.15257 -0.578831 0.801048 -0.15257 -0.578831 0.801048 -0.15257 -0.578831 0.801048 
0.15169 -0.728174 0.668396 0.15169 -0.728174 0.668396 0.15169 -0.728174 0.668396 
0.419552 -0.74672 -0.516125 0.419552 -0.74672 -0.516125 0.419552 -0.74672 -0.516125 
0.40156 -0.790639 -0.462211 0.40156 -0.790639 -0.462211 0.40156 -0.790639 -0.462211 
0.437844 -0.862078 -0.255175 0.437844 -0.862078 -0.255175 0.437844 -0.862078 -0.255175 
0.38968 -0.913966 0.113206 0.38968 -0.913966 0.113206 0.38968 -0.913966 0.113206 
0.43626 -0.867646 0.238469 0.43626 -0.867646 0.238469 0.43626 -0.867646 0.238469 
-0.785242 -0.594909 -0.171694 -0.785242 -0.594909 -0.171694 -0.785242 -0.594909 -0.171694 
-0.852625 -0.476402 -0.214645 -0.852625 -0.476402 -0.214645 -0.852625 -0.476402 -0.214645 
-0.775227 -0.433156 0.459782 -0.775227 -0.433156 0.459782 -0.775227 -0.433156 0.459782 
0.0193646 -0.523159 -0.852015 0.0193646 -0.523159 -0.852015 0.0193646 -0.523159 -0.852015 
-0.383903 -0.385755 0.838935 -0.383903 -0.385755 0.838935 -0.383903 -0.385755 0.838935 
-0.144028 -0.517801 -0.84329 -0.144028 -0.517801 -0.84329 -0.144028 -0.517801 -0.84329 
-0.126885 -0.488089 -0.863522 -0.126885 -0.488089 -0.863522 -0.126885 -0.488089 -0.863522 
-0.370503 -0.310061 0.875551 -0.370503 -0.310061 0.875551 -0.370503 -0.310061 0.875551 
0.0237418 -0.430139 -0.902451 0.0237418 -0.430139 -0.902451 0.0237418 -0.430139 -0.902451 
0.206737 -0.569299 -0.795713 0.206737 -0.569299 -0.795713 0.206737 -0.569299 -0.795713 
0.191661 -0.522975 -0.83052 0.191661 -0.522975 -0.83052 0.191661 -0.522975 -0.83052 
-0.166275 -0.217499 0.961793 -0.166275 -0.217499 0.961793 -0.166275 -0.217499 0.961793 
0.3497 -0.607309 -0.713362 0.3497 -0.607309 -0.713362 0.3497 -0.607309 -0.713362 
0.428926 -0.85306 0.297173 0.428926 -0.85306 0.297173 0.428926 -0.85306 0.297173 
0.198157 -0.695296 0.690867 0.198157 -0.695296 0.690867 0.198157 -0.695296 0.690867 
0.571766 -0.786677 -0.232856 0.571766 -0.786677 -0.232856 0.571766 -0.786677 -0.232856 
0.593648 -0.784974 -0.177194 0.593648 -0.784974 -0.177194 0.593648 -0.784974 -0.177194 
-0.776954 -0.151868 -0.610966 -0.776954 -0.151868 -0.610966 -0.776954 -0.151868 -0.610966 
-0.751076 -0.365684 0.549691 -0.751076 -0.365684 0.549691 -0.751076 -0.365684 0.549691 
0.190429 -0.668179 0.719218 0.190429 -0.668179 0.719218 0.190429 -0.668179 0.719218 
0.514499 -0.617259 -0.595216 0.514499 -0.617259 -0.595216 0.514499 -0.617259 -0.595216 
0.497903 -0.685051 -0.531787 0.497903 -0.685051 -0.531787 0.497903 -0.685051 -0.531787 
0.526409 -0.745161 0.409425 0.526409 -0.745161 0.409425 0.526409 -0.745161 0.409425 
0.256614 -0.617036 0.74392 0.256614 -0.617036 0.74392 0.256614 -0.617036 0.74392 
-0.911399 -0.341626 -0.229441 -0.911399 -0.341626 -0.229441 -0.911399 -0.341626 -0.229441 
-0.7664 -0.141686 -0.626543 -0.7664 -0.141686 -0.626543 -0.7664 -0.141686 -0.626543 
-0.772405 -0.289526 0.565301 -0.772405 -0.289526 0.565301 -0.772405 -0.289526 0.565301 
-0.342661 -0.207217 -0.916321 -0.342661 -0.207217 -0.916321 -0.342661 -0.207217 -0.916321 
-0.14058 -0.25479 -0.956723 -0.14058 -0.25479 -0.956723 -0.14058 -0.25479 -0.956723 
-0.389477 -0.0344423 0.920392 -0.389477 -0.0344423 0.920392 -0.389477 -0.0344423 0.920392 
0.0254139 -0.257263 -0.966007 0.0254139 -0.257263 -0.966007 0.0254139 -0.257263 -0.966007 
-0.204065 -0.293876 0.933806 -0.204065 -0.293876 0.933806 -0.204065 -0.293876 0.933806 
-0.110246 -0.319892 0.941018 -0.110246 -0.319892 0.941018 -0.110246 -0.319892 0.941018 
0.426552 -0.529961 -0.732935 0.426552 -0.529961 -0.732935 0.426552 -0.529961 -0.732935 
0.493718 -0.555047 -0.669451 0.493718 -0.555047 -0.669451 0.493718 -0.555047 -0.669451 
0.21509 -0.491612 0.843833 0.21509 -0.491612 0.843833 0.21509 -0.491612 0.843833 
0.620967 -0.766381 -0.164501 0.620967 -0.766381 -0.164501 0.620967 -0.766381 -0.164501 
0.587623 -0.725229 0.358807 0.587623 -0.725229 0.358807 0.587623 -0.725229 0.358807 
-0.84638 -0.165439 -0.506232 -0.84638 -0.165439 -0.506232 -0.84638 -0.165439 -0.506232 
-0.376944 -0.07648 0.923073 -0.376944 -0.07648 0.923073 -0.376944 -0.07648 0.923073 
-0.244475 -0.0992521 -0.964563 -0.244475 -0.0992521 -0.964563 -0.244475 -0.0992521 -0.964563 
0.00492545 -0.28628 -0.958133 0.00492545 -0.28628 -0.958133 0.00492545 -0.28628 -0.958133 
-0.38498 -0.0233893 0.922629 -0.38498 -0.0233893 0.922629 -0.38498 -0.0233893 0.922629 
-0.244267 0.0423552 0.968782 -0.244267 0.0423552 0.968782 -0.244267 0.0423552 0.968782 
-0.286415 -0.0999685 0.952876 -0.286415 -0.0999685 0.952876 -0.286415 -0.0999685 0.952876 
0.237986 -0.45056 -0.860441 0.237986 -0.45056 -0.860441 0.237986 -0.45056 -0.860441 
-0.00342022 -0.224382 0.974495 -0.00342022 -0.224382 0.974495 -0.00342022 -0.224382 0.974495 
0.706932 -0.571005 -0.417373 0.706932 -0.571005 -0.417373 0.706932 -0.571005 -0.417373 
0.720371 -0.624534 -0.301702 0.720371 -0.624534 -0.301702 0.720371 -0.624534 -0.301702 
0.633435 -0.674352 0.379486 0.633435 -0.674352 0.379486 0.633435 -0.674352 0.379486 
-0.709987 0.0514144 -0.702336 -0.709987 0.0514144 -0.702336 -0.709987 0.0514144 -0.702336 
-0.739354 0.341261 0.580428 -0.739354 0.341261 0.580428 -0.739354 0.341261 0.580428 
-0.684923 -0.0601623 0.726128 -0.684923 -0.0601623 0.726128 -0.684923 -0.0601623 0.726128 
-0.239819 -0.117321 -0.963703 -0.239819 -0.117321 -0.963703 -0.239819 -0.117321 -0.963703 
-0.277586 0.0939062 0.9561 -0.277586 0.0939062 0.9561 -0.277586 0.0939062 0.9561 
-0.164465 -0.119202 -0.979154 -0.164465 -0.119202 -0.979154 -0.164465 -0.119202 -0.979154 
-0.410732 0.0395993 0.910896 -0.410732 0.0395993 0.910896 -0.410732 0.0395993 0.910896 
0.0445639 -0.276684 -0.959927 0.0445639 -0.276684 -0.959927 0.0445639 -0.276684 -0.959927 
-0.106734 -0.223101 0.968934 -0.106734 -0.223101 0.968934 -0.106734 -0.223101 0.968934 
0.549327 -0.453346 -0.701939 0.549327 -0.453346 -0.701939 0.549327 -0.453346 -0.701939 
0.337918 -0.38037 0.860889 0.337918 -0.38037 0.860889 0.337918 -0.38037 0.860889 
0.833413 -0.55265 0.000632708 0.833413 -0.55265 0.000632708 0.833413 -0.55265 0.000632708 
0.592141 -0.414695 0.690939 0.592141 -0.414695 0.690939 0.592141 -0.414695 0.690939 
-0.797888 0.368279 -0.477228 -0.797888 0.368279 -0.477228 -0.797888 0.368279 -0.477228 
-0.863173 0.291028 -0.412595 -0.863173 0.291028 -0.412595 -0.863173 0.291028 -0.412595 
-0.389681 0.109789 -0.914382 -0.389681 0.109789 -0.914382 -0.389681 0.109789 -0.914382 
-0.391631 0.135416 0.910103 -0.391631 0.135416 0.910103 -0.391631 0.135416 0.910103 
0.0914347 -0.209652 -0.973492 0.0914347 -0.209652 -0.973492 0.0914347 -0.209652 -0.973492 
-0.330961 0.17292 0.927666 -0.330961 0.17292 0.927666 -0.330961 0.17292 0.927666 
-0.267347 0.0483894 0.962384 -0.267347 0.0483894 0.962384 -0.267347 0.0483894 0.962384 
0.336641 -0.400687 -0.852129 0.336641 -0.400687 -0.852129 0.336641 -0.400687 -0.852129 
0.0555418 -0.0603856 0.996629 0.0555418 -0.0603856 0.996629 0.0555418 -0.0603856 0.996629 
0.840623 -0.541596 0.00513529 0.840623 -0.541596 0.00513529 0.840623 -0.541596 0.00513529 
-0.858298 0.336236 -0.387647 -0.858298 0.336236 -0.387647 -0.858298 0.336236 -0.387647 
-0.763897 0.238386 0.599695 -0.763897 0.238386 0.599695 -0.763897 0.238386 0.599695 
-0.37599 0.342292 0.861086 -0.37599 0.342292 0.861086 -0.37599 0.342292 0.861086 
-0.390436 0.0906899 -0.916152 -0.390436 0.0906899 -0.916152 -0.390436 0.0906899 -0.916152 
-0.410776 0.284451 0.866228 -0.410776 0.284451 0.866228 -0.410776 0.284451 0.866228 
0.343181 -0.357229 -0.868685 0.343181 -0.357229 -0.868685 0.343181 -0.357229 -0.868685 
0.0125575 -0.0531543 0.998507 0.0125575 -0.0531543 0.998507 0.0125575 -0.0531543 0.998507 
0.717747 -0.509126 -0.475005 0.717747 -0.509126 -0.475005 0.717747 -0.509126 -0.475005 
0.830172 -0.44312 -0.338318 0.830172 -0.44312 -0.338318 0.830172 -0.44312 -0.338318 
0.869034 -0.438116 -0.229859 0.869034 -0.438116 -0.229859 0.869034 -0.438116 -0.229859 
0.850903 -0.428941 0.303273 0.850903 -0.428941 0.303273 0.850903 -0.428941 0.303273 
-0.88689 0.417286 -0.19824 -0.88689 0.417286 -0.19824 -0.88689 0.417286 -0.19824 
-0.847065 0.398548 0.351626 -0.847065 0.398548 0.351626 -0.847065 0.398548 0.351626 
-0.615236 0.436931 -0.656183 -0.615236 0.436931 -0.656183 -0.615236 0.436931 -0.656183 
-0.624826 0.443742 -0.642406 -0.624826 0.443742 -0.642406 -0.624826 0.443742 -0.642406 
-0.414493 0.288754 0.863028 -0.414493 0.288754 0.863028 -0.414493 0.288754 0.863028 
-0.0368891 -0.0810928 -0.996024 -0.0368891 -0.0810928 -0.996024 -0.0368891 -0.0810928 -0.996024 
-0.155945 0.109079 0.981724 -0.155945 0.109079 0.981724 -0.155945 0.109079 0.981724 
0.321635 -0.329383 -0.887726 0.321635 -0.329383 -0.887726 0.321635 -0.329383 -0.887726 
-0.167953 0.11136 0.979485 -0.167953 0.11136 0.979485 -0.167953 0.11136 0.979485 
0.460335 -0.387671 -0.798626 0.460335 -0.387671 -0.798626 0.460335 -0.387671 -0.798626 
0.142847 -0.0193348 0.989556 0.142847 -0.0193348 0.989556 0.142847 -0.0193348 0.989556 
0.62477 -0.443174 -0.642852 0.62477 -0.443174 -0.642852 0.62477 -0.443174 -0.642852 
0.667086 -0.336279 0.664765 0.667086 -0.336279 0.664765 0.667086 -0.336279 0.664765 
0.657833 -0.298882 0.691322 0.657833 -0.298882 0.691322 0.657833 -0.298882 0.691322 
-0.6606 0.736073 -0.147659 -0.6606 0.736073 -0.147659 -0.6606 0.736073 -0.147659 
-0.608681 0.678223 -0.411729 -0.608681 0.678223 -0.411729 -0.608681 0.678223 -0.411729 
-0.544403 0.693628 0.471705 -0.544403 0.693628 0.471705 -0.544403 0.693628 0.471705 
-0.401467 0.511513 0.759723 -0.401467 0.511513 0.759723 -0.401467 0.511513 0.759723 
-0.165646 -0.000403406 -0.986185 -0.165646 -0.000403406 -0.986185 -0.165646 -0.000403406 -0.986185 
-0.339198 0.0926685 -0.93614 -0.339198 0.0926685 -0.93614 -0.339198 0.0926685 -0.93614 
-0.204746 0.00647635 -0.978794 -0.204746 0.00647635 -0.978794 -0.204746 0.00647635 -0.978794 
-0.394827 0.313623 0.86357 -0.394827 0.313623 0.86357 -0.394827 0.313623 0.86357 
-0.33728 0.229086 0.913106 -0.33728 0.229086 0.913106 -0.33728 0.229086 0.913106 
-0.332791 0.229475 0.914654 -0.332791 0.229475 0.914654 -0.332791 0.229475 0.914654 
0.642315 -0.384802 -0.662841 0.642315 -0.384802 -0.662841 0.642315 -0.384802 -0.662841 
0.89255 -0.412606 -0.181964 0.89255 -0.412606 -0.181964 0.89255 -0.412606 -0.181964 
-0.62478 0.453199 -0.635815 -0.62478 0.453199 -0.635815 -0.62478 0.453199 -0.635815 
-0.637006 0.764693 -0.0973021 -0.637006 0.764693 -0.0973021 -0.637006 0.764693 -0.0973021 
-0.537716 0.645501 0.542393 -0.537716 0.645501 0.542393 -0.537716 0.645501 0.542393 
0.157667 -0.226682 -0.961123 0.157667 -0.226682 -0.961123 0.157667 -0.226682 -0.961123 
0.510778 -0.332693 -0.79273 0.510778 -0.332693 -0.79273 0.510778 -0.332693 -0.79273 
0.807114 -0.358045 -0.469436 0.807114 -0.358045 -0.469436 0.807114 -0.358045 -0.469436 
0.684308 -0.120641 0.719144 0.684308 -0.120641 0.719144 0.684308 -0.120641 0.719144 
0.935774 -0.306615 0.174107 0.935774 -0.306615 0.174107 0.935774 -0.306615 0.174107 
0.935996 -0.165013 0.310937 0.935996 -0.165013 0.310937 0.935996 -0.165013 0.310937 
-0.696245 0.505037 -0.510079 -0.696245 0.505037 -0.510079 -0.696245 0.505037 -0.510079 
-0.674203 0.738184 0.0231497 -0.674203 0.738184 0.0231497 -0.674203 0.738184 0.0231497 
-0.469764 0.68648 0.555037 -0.469764 0.68648 0.555037 -0.469764 0.68648 0.555037 
-0.571556 0.506873 -0.645293 -0.571556 0.506873 -0.645293 -0.571556 0.506873 -0.645293 
-0.363652 0.531416 0.765084 -0.363652 0.531416 0.765084 -0.363652 0.531416 0.765084 
-0.514306 0.529538 0.674595 -0.514306 0.529538 0.674595 -0.514306 0.529538 0.674595 
-0.419486 0.41245 0.808651 -0.419486 0.41245 0.808651 -0.419486 0.41245 0.808651 
0.349627 -0.279392 -0.89426 0.349627 -0.279392 -0.89426 0.349627 -0.279392 -0.89426 
0.457793 -0.265128 -0.848606 0.457793 -0.265128 -0.848606 0.457793 -0.265128 -0.848606 
0.173489 0.0128086 0.984752 0.173489 0.0128086 0.984752 0.173489 0.0128086 0.984752 
0.620254 -0.350731 -0.701621 0.620254 -0.350731 -0.701621 0.620254 -0.350731 -0.701621 
0.553101 0.0108354 0.833044 0.553101 0.0108354 0.833044 0.553101 0.0108354 0.833044 
0.949125 -0.248437 -0.193498 0.949125 -0.248437 -0.193498 0.949125 -0.248437 -0.193498 
0.897846 -0.235014 0.372345 0.897846 -0.235014 0.372345 0.897846 -0.235014 0.372345 
-0.633437 0.773056 0.0337967 -0.633437 0.773056 0.0337967 -0.633437 0.773056 0.0337967 
-0.437954 0.784541 0.438966 -0.437954 0.784541 0.438966 -0.437954 0.784541 0.438966 
-0.526894 0.491546 -0.693372 -0.526894 0.491546 -0.693372 -0.526894 0.491546 -0.693372 
-0.506465 0.57055 0.646503 -0.506465 0.57055 0.646503 -0.506465 0.57055 0.646503 
-0.442872 0.367669 0.817731 -0.442872 0.367669 0.817731 -0.442872 0.367669 0.817731 
0.22992 -0.0837283 -0.969601 0.22992 -0.0837283 -0.969601 0.22992 -0.0837283 -0.969601 
0.274301 -0.0947512 -0.956965 0.274301 -0.0947512 -0.956965 0.274301 -0.0947512 -0.956965 
-0.119501 0.206579 0.971105 -0.119501 0.206579 0.971105 -0.119501 0.206579 0.971105 
0.047946 0.261836 0.963921 0.047946 0.261836 0.963921 0.047946 0.261836 0.963921 
0.900636 -0.331281 0.28126 0.900636 -0.331281 0.28126 0.900636 -0.331281 0.28126 
-0.650563 0.75426 0.0886576 -0.650563 0.75426 0.0886576 -0.650563 0.75426 0.0886576 
-0.555004 0.643469 -0.52718 -0.555004 0.643469 -0.52718 -0.555004 0.643469 -0.52718 
-0.76881 0.560181 -0.308429 -0.76881 0.560181 -0.308429 -0.76881 0.560181 -0.308429 
-0.546962 0.359551 -0.756013 -0.546962 0.359551 -0.756013 -0.546962 0.359551 -0.756013 
-0.563557 0.410627 -0.71679 -0.563557 0.410627 -0.71679 -0.563557 0.410627 -0.71679 
-0.612405 0.689895 0.38601 -0.612405 0.689895 0.38601 -0.612405 0.689895 0.38601 
-0.191478 0.354173 -0.915368 -0.191478 0.354173 -0.915368 -0.191478 0.354173 -0.915368 
-0.166897 0.355788 -0.919543 -0.166897 0.355788 -0.919543 -0.166897 0.355788 -0.919543 
0.0423713 0.08104 -0.99581 0.0423713 0.08104 -0.99581 0.0423713 0.08104 -0.99581 
0.103029 0.049775 -0.993432 0.103029 0.049775 -0.993432 0.103029 0.049775 -0.993432 
-0.327222 0.289995 0.899349 -0.327222 0.289995 0.899349 -0.327222 0.289995 0.899349 
-0.305921 0.292177 0.906115 -0.305921 0.292177 0.906115 -0.305921 0.292177 0.906115 
-0.00229444 0.188311 0.982107 -0.00229444 0.188311 0.982107 -0.00229444 0.188311 0.982107 
0.196305 0.184648 0.963 0.196305 0.184648 0.963 0.196305 0.184648 0.963 
0.640885 -0.252391 -0.724959 0.640885 -0.252391 -0.724959 0.640885 -0.252391 -0.724959 
0.546991 0.0320492 0.836525 0.546991 0.0320492 0.836525 0.546991 0.0320492 0.836525 
0.788623 -0.327361 -0.520489 0.788623 -0.327361 -0.520489 0.788623 -0.327361 -0.520489 
0.841534 -0.295787 -0.452029 0.841534 -0.295787 -0.452029 0.841534 -0.295787 -0.452029 
-0.671825 0.737589 0.0679179 -0.671825 0.737589 0.0679179 -0.671825 0.737589 0.0679179 
-0.446316 0.691775 -0.56767 -0.446316 0.691775 -0.56767 -0.446316 0.691775 -0.56767 
-0.52975 0.821096 -0.212524 -0.52975 0.821096 -0.212524 -0.52975 0.821096 -0.212524 
-0.616579 0.676935 0.401982 -0.616579 0.676935 0.401982 -0.616579 0.676935 0.401982 
-0.385755 0.713208 -0.585258 -0.385755 0.713208 -0.585258 -0.385755 0.713208 -0.585258 
-0.258142 0.414934 -0.872464 -0.258142 0.414934 -0.872464 -0.258142 0.414934 -0.872464 
-0.448342 0.366334 0.815346 -0.448342 0.366334 0.815346 -0.448342 0.366334 0.815346 
0.956633 -0.281687 -0.0742032 0.956633 -0.281687 -0.0742032 0.956633 -0.281687 -0.0742032 
-0.634701 0.771741 0.0396377 -0.634701 0.771741 0.0396377 -0.634701 0.771741 0.0396377 
-0.591545 0.719266 0.364323 -0.591545 0.719266 0.364323 -0.591545 0.719266 0.364323 
-0.571525 0.757239 -0.316147 -0.571525 0.757239 -0.316147 -0.571525 0.757239 -0.316147 
-0.595526 0.789039 -0.150885 -0.595526 0.789039 -0.150885 -0.595526 0.789039 -0.150885 
-0.802092 0.586359 0.113279 -0.802092 0.586359 0.113279 -0.802092 0.586359 0.113279 
-0.706202 0.630168 0.32275 -0.706202 0.630168 0.32275 -0.706202 0.630168 0.32275 
-0.586597 0.52344 0.617992 -0.586597 0.52344 0.617992 -0.586597 0.52344 0.617992 
-0.415257 0.604245 -0.680037 -0.415257 0.604245 -0.680037 -0.415257 0.604245 -0.680037 
-0.166578 0.354249 -0.920195 -0.166578 0.354249 -0.920195 -0.166578 0.354249 -0.920195 
-0.484318 0.618915 -0.618369 -0.484318 0.618915 -0.618369 -0.484318 0.618915 -0.618369 
0.465732 -0.194345 -0.863321 0.465732 -0.194345 -0.863321 0.465732 -0.194345 -0.863321 
0.513184 -0.198659 -0.834971 0.513184 -0.198659 -0.834971 0.513184 -0.198659 -0.834971 
0.686802 -0.241401 -0.685587 0.686802 -0.241401 -0.685587 0.686802 -0.241401 -0.685587 
0.789398 -0.104788 0.604872 0.789398 -0.104788 0.604872 0.789398 -0.104788 0.604872 
0.458291 -0.0567582 0.886988 0.458291 -0.0567582 0.886988 0.458291 -0.0567582 0.886988 