# vtk DataFile Version 4.2
3D Slicer output. SPACE=LPS
ASCII
DATASET POLYDATA
POINTS 2688 double
5.1446180344 -3.7423124313 0.38245153427 7.6556005478 -3.757484436 2.0211181641 4.3076238632 -3.669532299 1.2017850876 
7.6556005478 -3.757484436 2.0211181641 6.8186063766 -3.5107002258 2.8404512405 4.3076238632 -3.669532299 1.2017850876 
2.6336355209 -2.9797978401 -0.90188694 2.6336355209 -3.4898014069 0.38245153427 1.7966413498 -2.8649744987 -0.43688154221 
1.7966413498 -2.8649744987 -0.43688154221 2.6336355209 -3.4898014069 0.38245153427 1.8106894493 -2.9797978401 0.38245153427 
1.8106894493 -2.9797978401 0.38245153427 2.6336355209 -3.4898014069 0.38245153427 2.509344101 -2.9797978401 1.2017850876 
2.6336355209 -3.4898014069 0.38245153427 2.6336355209 -2.9797978401 -0.90188694 4.3076238632 -3.7643556595 0.38245153427 
2.6336355209 -3.4898014069 0.38245153427 4.3076238632 -3.669532299 1.2017850876 2.509344101 -2.9797978401 1.2017850876 
4.3076238632 -3.7643556595 0.38245153427 4.3076238632 -3.669532299 1.2017850876 2.6336355209 -3.4898014069 0.38245153427 
6.8186063766 -2.9797978401 3.5655956268 2.509344101 -2.9797978401 1.2017850876 4.3076238632 -3.669532299 1.2017850876 
4.3076238632 -3.7643556595 0.38245153427 2.6336355209 -2.9797978401 -0.90188694 5.9816122055 -3.0238909721 -0.43688154221 
5.9816122055 -3.0238909721 -0.43688154221 5.1446180344 -3.7423124313 0.38245153427 4.3076238632 -3.7643556595 0.38245153427 
4.3076238632 -3.669532299 1.2017850876 4.3076238632 -3.7643556595 0.38245153427 5.1446180344 -3.7423124313 0.38245153427 
6.8186063766 -3.5107002258 2.8404512405 6.8186063766 -2.9797978401 3.5655956268 4.3076238632 -3.669532299 1.2017850876 
5.9816122055 -3.0238909721 -0.43688154221 7.6556005478 -3.0748305321 0.38245153427 5.1446180344 -3.7423124313 0.38245153427 
5.1446180344 -3.7423124313 0.38245153427 7.6556005478 -3.0748305321 0.38245153427 7.6556005478 -3.757484436 2.0211181641 
7.6556005478 -3.757484436 2.0211181641 8.4925947189 -3.5864906311 2.8404512405 6.8186063766 -3.5107002258 2.8404512405 
6.8186063766 -2.9797978401 3.5655956268 6.8186063766 -3.5107002258 2.8404512405 8.4925947189 -3.5864906311 2.8404512405 
8.4925947189 -3.5864906311 2.8404512405 6.8186063766 -2.1540484428 4.2544126511 6.8186063766 -2.9797978401 3.5655956268 
7.6556005478 -3.0748305321 0.38245153427 8.4925947189 -3.5456457138 2.0211181641 7.6556005478 -3.757484436 2.0211181641 
8.4925947189 -3.5456457138 2.0211181641 8.4925947189 -3.5864906311 2.8404512405 7.6556005478 -3.757484436 2.0211181641 
6.8186063766 -2.1540484428 4.2544126511 8.4925947189 -3.5864906311 2.8404512405 10.166583061 -2.3256015778 4.4791183472 
10.577415466 -2.1540484428 2.0211181641 8.4925947189 -3.5456457138 2.0211181641 7.6556005478 -3.0748305321 0.38245153427 
2.6336355209 -2.1540484428 -1.4780640602 1.7966413498 -2.8649744987 -0.43688154221 0.44236707687 -0.50255060196 -0.43688154221 
0.44236707687 -0.50255060196 -0.43688154221 1.7966413498 -2.8649744987 -0.43688154221 1.8106894493 -2.9797978401 0.38245153427 
2.6336355209 -2.9797978401 -0.90188694 1.7966413498 -2.8649744987 -0.43688154221 2.6336355209 -2.1540484428 -1.4780640602 
1.7966413498 -1.3282995224 1.7624912262 1.8106894493 -2.9797978401 0.38245153427 2.509344101 -2.9797978401 1.2017850876 
1.7966413498 -1.3282995224 1.7624912262 2.509344101 -2.9797978401 1.2017850876 3.4706296921 -2.1540484428 2.2800912857 
4.3076238632 -2.1540484428 -1.436841011 2.6336355209 -2.9797978401 -0.90188694 2.6336355209 -2.1540484428 -1.4780640602 
6.8186063766 -2.9797978401 3.5655956268 3.4706296921 -2.1540484428 2.2800912857 2.509344101 -2.9797978401 1.2017850876 
5.9816122055 -3.0238909721 -0.43688154221 2.6336355209 -2.9797978401 -0.90188694 4.3076238632 -2.1540484428 -1.436841011 
6.8186063766 -2.9797978401 3.5655956268 6.8186063766 -2.1540484428 4.2544126511 3.4706296921 -2.1540484428 2.2800912857 
4.3076238632 -2.1540484428 -1.436841011 6.8186063766 -1.3282995224 -1.2487630844 5.9816122055 -3.0238909721 -0.43688154221 
5.9816122055 -3.0238909721 -0.43688154221 6.8186063766 -1.3282995224 -1.2487630844 7.6556005478 -3.0748305321 0.38245153427 
8.4925947189 -1.3282995224 -0.54533338547 7.6556005478 -3.0748305321 0.38245153427 6.8186063766 -1.3282995224 -1.2487630844 
6.8186063766 -2.1540484428 4.2544126511 10.166583061 -2.3256015778 4.4791183472 9.3295888901 -1.6053161621 5.2984514236 
7.6556005478 -3.0748305321 0.38245153427 8.4925947189 -1.3282995224 -0.54533338547 9.9053001404 -1.3282995224 0.38245153427 
7.6556005478 -3.0748305321 0.38245153427 9.9053001404 -1.3282995224 0.38245153427 10.577415466 -2.1540484428 2.0211181641 
8.4925947189 -3.5456457138 2.0211181641 11.840571404 -1.5587158203 3.659784317 8.4925947189 -3.5864906311 2.8404512405 
11.840571404 -1.5587158203 3.659784317 10.166583061 -2.3256015778 4.4791183472 8.4925947189 -3.5864906311 2.8404512405 
0.44236707687 -0.50255060196 -0.43688154221 1.8106894493 -2.9797978401 0.38245153427 0.24961328506 0.32319879532 0.38245153427 
1.8106894493 -2.9797978401 0.38245153427 1.7966413498 -1.3282995224 1.7624912262 0.24961328506 0.32319879532 0.38245153427 
2.6336355209 -2.1540484428 -1.4780640602 0.44236707687 -0.50255060196 -0.43688154221 1.7966413498 -0.50255060196 -1.8164682388 
6.8186063766 -2.1540484428 4.2544126511 7.6556005478 -1.3282995224 5.0428829193 3.4706296921 -2.1540484428 2.2800912857 
7.6556005478 -1.3282995224 5.0428829193 6.8186063766 -2.1540484428 4.2544126511 9.3295888901 -1.6053161621 5.2984514236 
9.3295888901 -1.6053161621 5.2984514236 10.166583061 -2.3256015778 4.4791183472 11.840571404 -0.24208641052 6.1177845001 
10.166583061 1.1489481926 6.6396083832 9.3295888901 -1.6053161621 5.2984514236 11.840571404 -0.24208641052 6.1177845001 
8.4925947189 -3.5456457138 2.0211181641 10.577415466 -2.1540484428 2.0211181641 11.840571404 -1.5587158203 3.659784317 
10.577415466 -2.1540484428 2.0211181641 9.9053001404 -1.3282995224 0.38245153427 14.010151863 1.1489481926 2.8404512405 
5.9816122055 0.32319879532 4.6693763733 1.7299976349 0.32319879532 2.0211181641 1.7966413498 -1.3282995224 1.7624912262 
4.3076238632 -2.1540484428 -1.436841011 2.6336355209 -2.1540484428 -1.4780640602 1.7966413498 -0.50255060196 -1.8164682388 
5.9816122055 0.32319879532 4.6693763733 1.7966413498 -1.3282995224 1.7624912262 3.4706296921 -2.1540484428 2.2800912857 
6.8186063766 -1.3282995224 -1.2487630844 4.3076238632 -2.1540484428 -1.436841011 7.6556005478 1.1489481926 -1.836625576 
3.4706296921 -2.1540484428 2.2800912857 7.6556005478 -1.3282995224 5.0428829193 5.9816122055 0.32319879532 4.6693763733 
5.9816122055 0.32319879532 4.6693763733 7.6556005478 -1.3282995224 5.0428829193 7.6556005478 0.32319879532 5.5810890198 
6.8186063766 -1.3282995224 -1.2487630844 7.6556005478 1.1489481926 -1.836625576 8.4925947189 -1.3282995224 -0.54533338547 
10.166583061 1.1489481926 6.6396083832 7.6556005478 -1.3282995224 5.0428829193 9.3295888901 -1.6053161621 5.2984514236 
8.4925947189 -1.3282995224 -0.54533338547 10.166583061 0.32319879532 -0.46905946732 9.9053001404 -1.3282995224 0.38245153427 
14.398516655 1.1489481926 3.659784317 11.840571404 -1.5587158203 3.659784317 14.010151863 1.1489481926 2.8404512405 
11.840571404 -1.5587158203 3.659784317 10.577415466 -2.1540484428 2.0211181641 14.010151863 1.1489481926 2.8404512405 
11.840571404 -1.5587158203 3.659784317 12.677565575 -0.56766748428 5.2984514236 10.166583061 -2.3256015778 4.4791183472 
14.398516655 1.1489481926 3.659784317 12.677565575 -0.56766748428 5.2984514236 11.840571404 -1.5587158203 3.659784317 
11.840571404 -0.24208641052 6.1177845001 10.166583061 -2.3256015778 4.4791183472 12.677565575 -0.56766748428 5.2984514236 
0.31283998489 0.32319879532 -0.43688154221 1.7966413498 -0.50255060196 -1.8164682388 0.44236707687 -0.50255060196 -0.43688154221 
0.44236707687 -0.50255060196 -0.43688154221 0.24961328506 0.32319879532 0.38245153427 0.31283998489 0.32319879532 -0.43688154221 
0.24961328506 0.32319879532 0.38245153427 1.7966413498 -1.3282995224 1.7624912262 1.7299976349 0.32319879532 2.0211181641 
1.7966413498 -0.50255060196 -1.8164682388 5.9816122055 3.6261954308 -2.3768687248 4.3076238632 -2.1540484428 -1.436841011 
5.9816122055 3.6261954308 -2.3768687248 6.8186063766 2.8004460335 -2.2990202904 4.3076238632 -2.1540484428 -1.436841011 
4.3076238632 -2.1540484428 -1.436841011 6.8186063766 2.8004460335 -2.2990202904 7.6556005478 1.1489481926 -1.836625576 
9.3295888901 2.8004460335 -1.6764550209 8.4925947189 -1.3282995224 -0.54533338547 7.6556005478 1.1489481926 -1.836625576 
9.3295888901 2.8004460335 -1.6764550209 10.166583061 0.32319879532 -0.46905946732 8.4925947189 -1.3282995224 -0.54533338547 
7.6556005478 0.32319879532 5.5810890198 7.6556005478 -1.3282995224 5.0428829193 10.166583061 1.1489481926 6.6396083832 
10.166583061 1.1489481926 6.6396083832 11.840571404 -0.24208641052 6.1177845001 12.677565575 1.1489481926 6.8790960312 
9.9053001404 -1.3282995224 0.38245153427 10.166583061 0.32319879532 -0.46905946732 13.514559746 1.9746966362 1.5010213852 
9.9053001404 -1.3282995224 0.38245153427 13.514559746 1.9746966362 1.5010213852 14.010151863 1.1489481926 2.8404512405 
14.398516655 1.1489481926 3.659784317 14.351553917 0.90402078629 5.2984514236 12.677565575 -0.56766748428 5.2984514236 
14.351553917 0.90402078629 5.2984514236 14.351553917 1.403860569 6.1177845001 11.840571404 -0.24208641052 6.1177845001 
14.351553917 0.90402078629 5.2984514236 11.840571404 -0.24208641052 6.1177845001 12.677565575 -0.56766748428 5.2984514236 
1.7966413498 1.9746966362 -1.7718949318 1.7966413498 -0.50255060196 -1.8164682388 0.31283998489 0.32319879532 -0.43688154221 
1.148774147 1.9746966362 -1.2562146187 1.7966413498 1.9746966362 -1.7718949318 0.31283998489 0.32319879532 -0.43688154221 
1.2491703033 2.8004460335 1.2017850876 0.24961328506 0.32319879532 0.38245153427 1.7299976349 0.32319879532 2.0211181641 
1.7966413498 1.9746966362 -1.7718949318 5.9816122055 3.6261954308 -2.3768687248 1.7966413498 -0.50255060196 -1.8164682388 
[...]
CELL_DATA 896
FIELD FieldData 1
GroupIds 1 896 float
0 0 0 0 0 0 0 0 0 
0 0 0 0 0 0 0 0 0 
0 0 0 0 0 0 0 0 0 
0 0 0 0 0 0 0 0 0 
0 0 0 0 0 0 0 0 0 
0 0 0 0 0 0 0 0 0 
0 0 0 0 0 0 0 0 0 
0 0 0 0 0 0 0 0 0 
0 0 0 0 0 0 0 0 0 
0 0 0 0 0 0 0 0 0 
0 0 0 0 0 0 0 0 0 
0 0 0 0 0 0 0 0 0 
0 0 0 0 0 0 0 0 0 
0 0 0 0 0 0 0 0 0 
0 0 0 0 0 0 0 0 0 
0 0 0 0 0 0 0 0 0 
0 0 0 0 0 0 0 0 0 
0 0 0 0 0 0 0 0 0 
0 0 0 0 0 0 0 0 0 
0 0 0 0 0 0 0 0 0 
0 0 0 0 0 0 0 0 0 
0 0 0 0 0 0 0 0 0 
0 0 0 0 0 0 0 0 0 
0 0 0 0 0 0 0 0 0 
0 0 0 0 0 0 0 0 0 
0 0 0 0 0 0 0 0 0 
0 0 0 0 0 0 0 0 0 
0 0 0 0 0 0 0 0 0 
0 0 0 0 0 0 0 0 0 
0 0 0 0 0 0 0 0 0 
0 0 0 0 0 0 0 0 0 
0 0 0 0 0 0 0 0 0 
0 0 0 0 0 0 0 0 0 
0 0 0 0 0 0 0 0 0 
0 0 0 0 0 0 0 0 0 
0 0 0 0 0 0 0 0 0 
0 0 0 0 0 0 0 0 0 
0 0 0 0 0 0 0 0 0 
0 0 0 0 0 0 0 0 0 
0 0 0 0 0 0 0 0 0 
0 0 0 0 0 0 0 0 0 
0 0 0 0 0 0 0 0 0 
0 0 0 0 0 0 0 0 0 
0 0 0 0 0 0 0 0 0 
0 0 0 0 0 0 0 0 0 
0 0 0 0 0 0 0 0 0 
0 0 0 0 0 0 0 0 0 
0 0 0 0 0 0 0 0 0 
0 0 0 0 0 0 0 0 0 
0 0 0 0 0 0 0 0 0 
0 0 0 0 0 0 0 0 0 
0 0 0 0 0 0 0 0 0 
0 0 0 0 0 0 0 0 0 
0 0 0 0 0 0 0 0 0 
0 0 0 0 0 0 0 0 0 
0 0 0 0 0 0 0 0 0 
0 0 0 0 0 0 0 0 0 
0 0 0 0 0 0 0 0 0 
0 0 0 0 0 0 0 0 0 
0 0 0 0 0 0 0 0 0 
0 0 0 0 0 0 0 0 0 
0 0 0 0 0 0 0 0 0 
0 0 0 0 0 0 0 0 0 
0 0 0 0 0 0 0 0 0 
0 0 0 0 0 0 0 0 0 
0 0 0 0 0 0 0 0 0 
0 0 0 0 0 0 0 0 0 
0 0 0 0 0 0 0 0 0 
0 0 0 0 0 0 0 0 0 
0 0 0 0 0 0 0 0 0 
0 0 0 0 0 0 0 0 0 
0 0 0 0 0 0 0 0 0 
0 0 0 0 0 0 0 0 0 
0 0 0 0 0 0 0 0 0 
0 0 0 0 0 0 0 0 0 
0 0 0 0 0 0 0 0 0 
0 0 0 0 0 0 0 0 0 
0 0 0 0 0 0 0 0 0 
0 0 0 0 0 0 0 0 0 
0 0 0 0 0 0 0 0 0 
0 0 0 0 0 0 0 0 0 
0 0 0 0 0 0 0 0 0 
0 0 0 0 0 0 0 0 0 
0 0 0 0 0 0 0 0 0 
0 0 0 0 0 0 0 0 0 
0 0 0 0 0 0 0 0 0 
0 0 0 0 0 0 0 0 0 
0 0 0 0 0 0 0 0 0 
0 0 0 0 0 0 0 0 0 
0 0 0 0 0 0 0 0 0 
0 0 0 0 0 0 0 0 0 
0 0 0 0 0 0 0 0 0 
0 0 0 0 0 0 0 0 0 
0 0 0 0 0 0 0 0 0 
0 0 0 0 0 0 0 0 0 
0 0 0 0 0 0 0 0 0 
0 0 0 0 0 0 0 0 0 
0 0 0 0 0 0 0 0 0 
0 0 0 0 0 0 0 0 0 
0 0 0 0 0 
POINT_DATA 2688
NORMALS Normals float
-0.0383317 -0.998038 0.0494963 -0.0383317 -0.998038 0.0494963 -0.0383317 -0.998038 0.0494963 
-0.0778882 -0.973781 0.213737 -0.0778882 -0.973781 0.213737 -0.0778882 -0.973781 0.213737 
-0.315549 -0.881921 -0.350206 -0.315549 -0.881921 -0.350206 -0.315549 -0.881921 -0.350206 
-0.52361 -0.844901 -0.109429 -0.52361 -0.844901 -0.109429 -0.52361 -0.844901 -0.109429 
-0.480522 -0.775375 0.409747 -0.480522 -0.775375 0.409747 -0.480522 -0.775375 0.409747 
-0.150693 -0.918792 -0.364847 -0.150693 -0.918792 -0.364847 -0.150693 -0.918792 -0.364847 
-0.316832 -0.826045 0.466119 -0.316832 -0.826045 0.466119 -0.316832 -0.826045 0.466119 
-0.160804 -0.980442 0.113469 -0.160804 -0.980442 0.113469 -0.160804 -0.980442 0.113469 
-0.299868 -0.781817 0.546664 -0.299868 -0.781817 0.546664 -0.299868 -0.781817 0.546664 
0.0706797 -0.807611 -0.585465 0.0706797 -0.807611 -0.585465 0.0706797 -0.807611 -0.585465 
0.0200632 -0.761811 -0.647488 0.0200632 -0.761811 -0.647488 0.0200632 -0.761811 -0.647488 
0.0261526 -0.99303 0.114926 0.0261526 -0.99303 0.114926 0.0261526 -0.99303 0.114926 
-0.317201 -0.765198 0.560227 -0.317201 -0.765198 0.560227 -0.317201 -0.765198 0.560227 
0.22175 -0.834194 -0.504923 0.22175 -0.834194 -0.504923 0.22175 -0.834194 -0.504923 
0.238314 -0.896506 -0.373476 0.238314 -0.896506 -0.373476 0.238314 -0.896506 -0.373476 
-0.0438298 -0.968072 0.24681 -0.0438298 -0.968072 0.24681 -0.0438298 -0.968072 0.24681 
-0.0365068 -0.806329 0.59034 -0.0365068 -0.806329 0.59034 -0.0365068 -0.806329 0.59034 
0.0999845 -0.637354 0.764057 0.0999845 -0.637354 0.764057 0.0999845 -0.637354 0.764057 
0.227506 -0.898895 -0.374472 0.227506 -0.898895 -0.374472 0.227506 -0.898895 -0.374472 
0.245072 -0.968302 -0.0482713 0.245072 -0.968302 -0.0482713 0.245072 -0.968302 -0.0482713 
-0.0825451 -0.747299 0.659341 -0.0825451 -0.747299 0.659341 -0.0825451 -0.747299 0.659341 
0.492047 -0.73716 -0.463125 0.492047 -0.73716 -0.463125 0.492047 -0.73716 -0.463125 
-0.602214 -0.345223 -0.719833 -0.602214 -0.345223 -0.719833 -0.602214 -0.345223 -0.719833 
-0.866259 -0.496588 -0.0547404 -0.866259 -0.496588 -0.0547404 -0.866259 -0.496588 -0.0547404 
-0.471127 -0.504745 -0.723376 -0.471127 -0.504745 -0.723376 -0.471127 -0.504745 -0.723376 
-0.667106 -0.481021 0.568848 -0.667106 -0.481021 0.568848 -0.667106 -0.481021 0.568848 
-0.460721 -0.457117 0.760776 -0.460721 -0.457117 0.760776 -0.460721 -0.457117 0.760776 
0.0201912 -0.572114 -0.819926 0.0201912 -0.572114 -0.819926 0.0201912 -0.572114 -0.819926 
-0.415115 -0.504967 0.756761 -0.415115 -0.504967 0.756761 -0.415115 -0.504967 0.756761 
0.0937158 -0.668154 -0.738098 0.0937158 -0.668154 -0.738098 0.0937158 -0.668154 -0.738098 
-0.412513 -0.583523 0.699524 -0.412513 -0.583523 0.699524 -0.412513 -0.583523 0.699524 
0.229881 -0.510281 -0.828715 0.229881 -0.510281 -0.828715 0.229881 -0.510281 -0.828715 
0.356459 -0.540774 -0.761906 0.356459 -0.540774 -0.761906 0.356459 -0.540774 -0.761906 
0.321037 -0.559694 -0.763988 0.321037 -0.559694 -0.763988 0.321037 -0.559694 -0.763988 
-0.0813277 -0.788286 0.609911 -0.0813277 -0.788286 0.609911 -0.0813277 -0.788286 0.609911 
0.448214 -0.577343 -0.68248 0.448214 -0.577343 -0.68248 0.448214 -0.577343 -0.68248 
0.514263 -0.66242 -0.544733 0.514263 -0.66242 -0.544733 0.514263 -0.66242 -0.544733 
0.525159 -0.849949 -0.0423712 0.525159 -0.849949 -0.0423712 0.525159 -0.849949 -0.0423712 
0.478936 -0.860641 0.17297 0.478936 -0.860641 0.17297 0.478936 -0.860641 0.17297 
-0.88337 -0.417502 0.212953 -0.88337 -0.417502 0.212953 -0.88337 -0.417502 0.212953 
-0.807962 -0.381863 0.448752 -0.807962 -0.381863 0.448752 -0.807962 -0.381863 0.448752 
-0.63695 -0.450933 -0.625263 -0.63695 -0.450933 -0.625263 -0.63695 -0.450933 -0.625263 
-0.485509 -0.294018 0.823307 -0.485509 -0.294018 0.823307 -0.485509 -0.294018 0.823307 
-0.214376 -0.552086 0.805757 -0.214376 -0.552086 0.805757 -0.214376 -0.552086 0.805757 
0.129676 -0.675255 0.726096 0.129676 -0.675255 0.726096 0.129676 -0.675255 0.726096 
-0.0671231 -0.420245 0.904925 -0.0671231 -0.420245 0.904925 -0.0671231 -0.420245 0.904925 
0.550834 -0.825232 -0.124798 0.550834 -0.825232 -0.124798 0.550834 -0.825232 -0.124798 
0.647718 -0.539786 -0.537674 0.647718 -0.539786 -0.537674 0.647718 -0.539786 -0.537674 
-0.522526 -0.152456 0.838883 -0.522526 -0.152456 0.838883 -0.522526 -0.152456 0.838883 
0.0241749 -0.188905 -0.981698 0.0241749 -0.188905 -0.981698 0.0241749 -0.188905 -0.981698 
-0.432762 -0.358947 0.826967 -0.432762 -0.358947 0.826967 -0.432762 -0.358947 0.826967 
0.162806 -0.279552 -0.946227 0.162806 -0.279552 -0.946227 0.162806 -0.279552 -0.946227 
-0.48258 -0.303325 0.821651 -0.48258 -0.303325 0.821651 -0.48258 -0.303325 0.821651 
-0.459836 -0.275149 0.844301 -0.459836 -0.275149 0.844301 -0.459836 -0.275149 0.844301 
0.365687 -0.330069 -0.870245 0.365687 -0.330069 -0.870245 0.365687 -0.330069 -0.870245 
-0.200632 -0.378936 0.903413 -0.200632 -0.378936 0.903413 -0.200632 -0.378936 0.903413 
0.487468 -0.459826 -0.74225 0.487468 -0.459826 -0.74225 0.487468 -0.459826 -0.74225 
0.687266 -0.649264 -0.325765 0.687266 -0.649264 -0.325765 0.687266 -0.649264 -0.325765 
0.697485 -0.650101 -0.301469 0.697485 -0.650101 -0.301469 0.697485 -0.650101 -0.301469 
0.500679 -0.829891 0.246174 0.500679 -0.829891 0.246174 0.500679 -0.829891 0.246174 
0.726215 -0.686059 0.0439871 0.726215 -0.686059 0.0439871 0.726215 -0.686059 0.0439871 
0.312083 -0.729462 0.608679 0.312083 -0.729462 0.608679 0.312083 -0.729462 0.608679 
-0.709194 -0.111244 -0.696182 -0.709194 -0.111244 -0.696182 -0.709194 -0.111244 -0.696182 
-0.985062 -0.154517 -0.0760157 -0.985062 -0.154517 -0.0760157 -0.985062 -0.154517 -0.0760157 
-0.735372 -0.133712 0.664341 -0.735372 -0.133712 0.664341 -0.735372 -0.133712 0.664341 
0.0365783 -0.170723 -0.98464 0.0365783 -0.170723 -0.98464 0.0365783 -0.170723 -0.98464 
-0.0518175 -0.145666 -0.987976 -0.0518175 -0.145666 -0.987976 -0.0518175 -0.145666 -0.987976 
0.101422 -0.220229 -0.970161 0.101422 -0.220229 -0.970161 0.101422 -0.220229 -0.970161 
0.394631 -0.31634 -0.862668 0.394631 -0.31634 -0.862668 0.394631 -0.31634 -0.862668 
0.348802 -0.312749 -0.883473 0.348802 -0.312749 -0.883473 0.348802 -0.312749 -0.883473 
-0.286392 -0.296872 0.910959 -0.286392 -0.296872 0.910959 -0.286392 -0.296872 0.910959 
-0.0853374 -0.438346 0.894746 -0.0853374 -0.438346 0.894746 -0.0853374 -0.438346 0.894746 
0.606519 -0.43806 -0.663505 0.606519 -0.43806 -0.663505 0.606519 -0.43806 -0.663505 
0.64739 -0.518126 -0.558956 0.64739 -0.518126 -0.558956 0.64739 -0.518126 -0.558956 
0.657411 -0.74778 -0.0929279 0.657411 -0.74778 -0.0929279 0.657411 -0.74778 -0.0929279 
0.48833 -0.744974 0.454476 0.48833 -0.744974 0.454476 0.48833 -0.744974 0.454476 
0.473239 -0.538291 0.697343 0.473239 -0.538291 0.697343 0.473239 -0.538291 0.697343 
-0.676898 0.0132421 -0.735958 -0.676898 0.0132421 -0.735958 -0.676898 0.0132421 -0.735958 
-0.621119 -0.0727451 -0.780333 -0.621119 -0.0727451 -0.780333 -0.621119 -0.0727451 -0.780333 
-0.739806 0.0774568 0.668347 -0.739806 0.0774568 0.668347 -0.739806 0.0774568 0.668347 
-0.149921 0.0177868 -0.988538 -0.149921 0.0177868 -0.988538 -0.149921 0.0177868 -0.988538 
-0.527836 -0.0573521 0.847408 -0.527836 -0.0573521 0.847408 -0.527836 -0.0573521 0.847408 
0.494112 -0.240287 -0.835533 0.494112 -0.240287 -0.835533 0.494112 -0.240287 -0.835533 
0.402366 -0.613831 0.6792 0.402366 -0.613831 0.6792 0.402366 -0.613831 0.6792 
-0.882413 0.248432 -0.399537 -0.882413 0.248432 -0.399537 -0.882413 0.248432 -0.399537 
-0.959934 0.270257 -0.0740767 -0.959934 0.270257 -0.0740767 -0.959934 0.270257 -0.0740767 
-0.579121 0.152472 0.800857 -0.579121 0.152472 0.800857 -0.579121 0.152472 0.800857 
-0.477455 -0.0593313 0.876651 -0.477455 -0.0593313 0.876651 -0.477455 -0.0593313 0.876651 
0.417827 -0.521052 0.744261 0.417827 -0.521052 0.744261 0.417827 -0.521052 0.744261 
-0.91102 0.262375 0.318124 -0.91102 0.262375 0.318124 -0.91102 0.262375 0.318124 
-0.155145 0.0314459 -0.987391 -0.155145 0.0314459 -0.987391 -0.155145 0.0314459 -0.987391 
-0.590541 0.0912473 0.801832 -0.590541 0.0912473 0.801832 -0.590541 0.0912473 0.801832 
0.198973 -0.169414 -0.96525 0.198973 -0.169414 -0.96525 0.198973 -0.169414 -0.96525 
0.602763 -0.394726 -0.693447 0.602763 -0.394726 -0.693447 0.602763 -0.394726 -0.693447 
0.20408 -0.327748 0.92246 0.20408 -0.327748 0.92246 0.20408 -0.327748 0.92246 
0.875276 -0.481348 -0.0468613 0.875276 -0.481348 -0.0468613 0.875276 -0.481348 -0.0468613 
0.840666 -0.462315 0.282038 0.840666 -0.462315 0.282038 0.840666 -0.462315 0.282038 
0.844914 -0.490433 0.213534 0.844914 -0.490433 0.213534 0.844914 -0.490433 0.213534 
-0.959784 0.276419 -0.0490565 -0.959784 0.276419 -0.0490565 -0.959784 0.276419 -0.0490565 
-0.573441 0.390051 -0.720434 -0.573441 0.390051 -0.720434 -0.573441 0.390051 -0.720434 
-0.662992 0.507396 0.550446 -0.662992 0.507396 0.550446 -0.662992 0.507396 0.550446 
-0.574627 0.389243 -0.719926 -0.574627 0.389243 -0.719926 -0.574627 0.389243 -0.719926 
-0.388235 0.349284 -0.852804 -0.388235 0.349284 -0.852804 -0.388235 0.349284 -0.852804 
-0.635645 0.462677 0.617969 -0.635645 0.462677 0.617969 -0.635645 0.462677 0.617969 
-0.593302 0.242585 0.767558 -0.593302 0.242585 0.767558 -0.593302 0.242585 0.767558 
0.282008 -0.194737 -0.939441 0.282008 -0.194737 -0.939441 0.282008 -0.194737 -0.939441 
-0.369891 -0.0634115 0.926909 -0.369891 -0.0634115 0.926909 -0.369891 -0.0634115 0.926909 
-0.449632 -0.0232539 0.892911 -0.449632 -0.0232539 0.892911 -0.449632 -0.0232539 0.892911 
-0.363811 -0.0617888 0.929421 -0.363811 -0.0617888 0.929421 -0.363811 -0.0617888 0.929421 
0.492119 -0.255584 -0.832163 0.492119 -0.255584 -0.832163 0.492119 -0.255584 -0.832163 
-0.0928136 -0.210711 0.973132 -0.0928136 -0.210711 0.973132 -0.0928136 -0.210711 0.973132 
-0.143839 -0.221959 0.964388 -0.143839 -0.221959 0.964388 -0.143839 -0.221959 0.964388 
0.702842 -0.407967 0.582732 0.702842 -0.407967 0.582732 0.702842 -0.407967 0.582732 
-0.677679 0.734542 -0.0346375 -0.677679 0.734542 -0.0346375 -0.677679 0.734542 -0.0346375 
-0.563706 0.611005 -0.555796 -0.563706 0.611005 -0.555796 -0.563706 0.611005 -0.555796 
-0.727341 0.667639 -0.158853 -0.727341 0.667639 -0.158853 -0.727341 0.667639 -0.158853 
-0.670524 0.615485 0.414217 -0.670524 0.615485 0.414217 -0.670524 0.615485 0.414217 
-0.521175 0.105986 0.846844 -0.521175 0.105986 0.846844 -0.521175 0.105986 0.846844 
0.781937 -0.358213 -0.510154 0.781937 -0.358213 -0.510154 0.781937 -0.358213 -0.510154 
0.834917 -0.382484 -0.395752 0.834917 -0.382484 -0.395752 0.834917 -0.382484 -0.395752 
0.864111 -0.382265 -0.327394 0.864111 -0.382265 -0.327394 0.864111 -0.382265 -0.327394 
0.897153 -0.396882 -0.193912 0.897153 -0.396882 -0.193912 0.897153 -0.396882 -0.193912 
0.694652 -0.325753 0.64136 0.694652 -0.325753 0.64136 0.694652 -0.325753 0.64136 
0.466214 -0.190916 0.863826 0.466214 -0.190916 0.863826 0.466214 -0.190916 0.863826 
0.941052 -0.330228 -0.073279 0.941052 -0.330228 -0.073279 0.941052 -0.330228 -0.073279 
0.917851 -0.322087 0.231968 0.917851 -0.322087 0.231968 0.917851 -0.322087 0.231968 
-0.650967 0.501278 -0.570056 -0.650967 0.501278 -0.570056 -0.650967 0.501278 -0.570056 
-0.476656 0.324559 -0.816983 -0.476656 0.324559 -0.816983 -0.476656 0.324559 -0.816983 
-0.329906 0.0906183 -0.939654 -0.329906 0.0906183 -0.939654 -0.329906 0.0906183 -0.939654 
0.123415 0.031588 -0.991852 0.123415 0.031588 -0.991852 0.123415 0.031588 -0.991852 
-0.364249 0.0376671 0.930539 -0.364249 0.0376671 0.930539 -0.364249 0.0376671 0.930539 
-0.0385006 -0.0058967 0.999241 -0.0385006 -0.0058967 0.999241 -0.0385006 -0.0058967 0.999241 
-0.0705474 -0.00588638 0.997491 -0.0705474 -0.00588638 0.997491 -0.0705474 -0.00588638 0.997491 
0.326459 -0.203981 0.922939 0.326459 -0.203981 0.922939 0.326459 -0.203981 0.922939 
-0.662824 0.56756 -0.488406 -0.662824 0.56756 -0.488406 -0.662824 0.56756 -0.488406 
0.0700171 0.0134891 -0.997455 0.0700171 0.0134891 -0.997455 0.0700171 0.0134891 -0.997455 
0.116825 0.00388044 -0.993145 0.116825 0.00388044 -0.993145 0.116825 0.00388044 -0.993145 
-0.527705 0.169965 0.832249 -0.527705 0.169965 0.832249 -0.527705 0.169965 0.832249 
0.346869 -0.124001 -0.929681 0.346869 -0.124001 -0.929681 0.346869 -0.124001 -0.929681 
0.42784 -0.174442 -0.886861 0.42784 -0.174442 -0.886861 0.42784 -0.174442 -0.886861 
-0.128854 0.0401085 0.990852 -0.128854 0.0401085 0.990852 -0.128854 0.0401085 0.990852 
0.626169 -0.26429 -0.733528 0.626169 -0.26429 -0.733528 0.626169 -0.26429 -0.733528 
0.66879 -0.305248 -0.677896 0.66879 -0.305248 -0.677896 0.66879 -0.305248 -0.677896 
0.766695 -0.336036 -0.547045 0.766695 -0.336036 -0.547045 0.766695 -0.336036 -0.547045 
0.866224 -0.229599 0.44378 0.866224 -0.229599 0.44378 0.866224 -0.229599 0.44378 
-0.757647 0.648754 -0.071334 -0.757647 0.648754 -0.071334 -0.757647 0.648754 -0.071334 
-0.699522 0.575129 0.42414 -0.699522 0.575129 0.42414 -0.699522 0.575129 0.42414 
-0.348747 0.721854 -0.597748 -0.348747 0.721854 -0.597748 -0.348747 0.721854 -0.597748 
-0.760271 0.55921 0.330562 -0.760271 0.55921 0.330562 -0.760271 0.55921 0.330562 
-0.172519 0.255421 -0.951313 -0.172519 0.255421 -0.951313 -0.172519 0.255421 -0.951313 
-0.206034 0.370209 -0.905812 -0.206034 0.370209 -0.905812 -0.206034 0.370209 -0.905812 
-0.634362 0.466599 0.616336 -0.634362 0.466599 0.616336 -0.634362 0.466599 0.616336 
-0.693827 0.399147 0.599404 -0.693827 0.399147 0.599404 -0.693827 0.399147 0.599404 
0.152439 0.0130324 -0.988227 0.152439 0.0130324 -0.988227 0.152439 0.0130324 -0.988227 
0.240246 -0.0265454 -0.970349 0.240246 -0.0265454 -0.970349 0.240246 -0.0265454 -0.970349 
-0.42419 0.109695 0.898905 -0.42419 0.109695 0.898905 -0.42419 0.109695 0.898905 
0.965149 -0.250676 -0.0751554 0.965149 -0.250676 -0.0751554 0.965149 -0.250676 -0.0751554 
-0.673162 0.73339 0.0948279 -0.673162 0.73339 0.0948279 -0.673162 0.73339 0.0948279 
-0.702065 0.701563 0.122122 -0.702065 0.701563 0.122122 -0.702065 0.701563 0.122122 
-0.620735 0.620291 -0.479507 -0.620735 0.620291 -0.479507 -0.620735 0.620291 -0.479507 
-0.592376 0.509249 -0.624305 -0.592376 0.509249 -0.624305 -0.592376 0.509249 -0.624305 
-0.282244 0.318362 -0.904977 -0.282244 0.318362 -0.904977 -0.282244 0.318362 -0.904977 
0.0325471 0.174167 -0.984178 0.0325471 0.174167 -0.984178 0.0325471 0.174167 -0.984178 
-0.573916 0.234658 0.784574 -0.573916 0.234658 0.784574 -0.573916 0.234658 0.784574 
-0.552844 0.218023 0.804257 -0.552844 0.218023 0.804257 -0.552844 0.218023 0.804257 
0.632748 -0.224054 -0.741235 0.632748 -0.224054 -0.741235 0.632748 -0.224054 -0.741235 
0.822304 -0.22946 -0.520735 0.822304 -0.22946 -0.520735 0.822304 -0.22946 -0.520735 
0.474423 -0.0471077 0.879036 0.474423 -0.0471077 0.879036 0.474423 -0.0471077 0.879036 
-0.879621 0.461686 -0.114513 -0.879621 0.461686 -0.114513 -0.879621 0.461686 -0.114513 
-0.695763 0.388748 0.603977 -0.695763 0.388748 0.603977 -0.695763 0.388748 0.603977 
-0.531952 0.267652 0.803361 -0.531952 0.267652 0.803361 -0.531952 0.267652 0.803361 
0.486729 -0.134153 -0.86319 0.486729 -0.134153 -0.86319 0.486729 -0.134153 -0.86319 
0.152174 0.0691571 0.985931 0.152174 0.0691571 0.985931 0.152174 0.0691571 0.985931 
0.680111 -0.167618 -0.71369 0.680111 -0.167618 -0.71369 0.680111 -0.167618 -0.71369 
0.753397 -0.184769 -0.631073 0.753397 -0.184769 -0.631073 0.753397 -0.184769 -0.631073 
0.363032 0.0208943 0.931542 0.363032 0.0208943 0.931542 0.363032 0.0208943 0.931542 
0.845638 -0.228443 -0.482401 0.845638 -0.228443 -0.482401 0.845638 -0.228443 -0.482401 
0.856921 -0.0918101 0.507205 0.856921 -0.0918101 0.507205 0.856921 -0.0918101 0.507205 
0.906649 -0.244925 -0.343511 0.906649 -0.244925 -0.343511 0.906649 -0.244925 -0.343511 
0.93882 -0.237105 -0.249797 0.93882 -0.237105 -0.249797 0.93882 -0.237105 -0.249797 
0.965071 -0.243735 -0.0960752 0.965071 -0.243735 -0.0960752 0.965071 -0.243735 -0.0960752 
0.976107 -0.201421 0.0815195 0.976107 -0.201421 0.0815195 0.976107 -0.201421 0.0815195 
0.791612 -0.16335 0.588785 0.791612 -0.16335 0.588785 0.791612 -0.16335 0.588785 
-0.748983 0.614683 0.247365 -0.748983 0.614683 0.247365 -0.748983 0.614683 0.247365 
-0.706723 0.653715 0.270553 -0.706723 0.653715 0.270553 -0.706723 0.653715 0.270553 
-0.268188 0.434321 -0.859908 -0.268188 0.434321 -0.859908 -0.268188 0.434321 -0.859908 
-0.444921 0.55969 -0.699137 -0.444921 0.55969 -0.699137 -0.444921 0.55969 -0.699137 
-0.477273 0.797673 -0.368685 -0.477273 0.797673 -0.368685 -0.477273 0.797673 -0.368685 
-0.620246 0.780241 -0.0807465 -0.620246 0.780241 -0.0807465 -0.620246 0.780241 -0.0807465 
-0.726483 0.555331 0.40476 -0.726483 0.555331 0.40476 -0.726483 0.555331 0.40476 
0.274275 0.0476704 -0.960469 0.274275 0.0476704 -0.960469 0.274275 0.0476704 -0.960469 
-0.197776 0.186179 0.962404 -0.197776 0.186179 0.962404 -0.197776 0.186179 0.962404 
-0.757897 0.586105 0.286484 -0.757897 0.586105 0.286484 -0.757897 0.586105 0.286484 
-0.694905 0.389504 0.604478 -0.694905 0.389504 0.604478 -0.694905 0.389504 0.604478 
-0.583577 0.369832 0.722954 -0.583577 0.369832 0.722954 -0.583577 0.369832 0.722954 
-0.0257838 0.339366 -0.940301 -0.0257838 0.339366 -0.940301 -0.0257838 0.339366 -0.940301 
-0.427264 0.28578 0.857773 -0.427264 0.28578 0.857773 -0.427264 0.28578 0.857773 
-0.309376 0.238989 0.920419 -0.309376 0.238989 0.920419 -0.309376 0.238989 0.920419 
-0.313503 0.243379 0.917868 -0.313503 0.243379 0.917868 -0.313503 0.243379 0.917868 
0.490802 -0.0386468 -0.870413 0.490802 -0.0386468 -0.870413 0.490802 -0.0386468 -0.870413 
0.378 0.0385016 0.925005 0.378 0.0385016 0.925005 0.378 0.0385016 0.925005 
0.790894 -0.161138 0.590357 0.790894 -0.161138 0.590357 0.790894 -0.161138 0.590357 
-0.627023 0.650079 -0.429231 -0.627023 0.650079 -0.429231 -0.627023 0.650079 -0.429231 
-0.690344 0.715729 -0.105628 -0.690344 0.715729 -0.105628 -0.690344 0.715729 -0.105628 
0.0172674 0.414057 -0.910087 0.0172674 0.414057 -0.910087 0.0172674 0.414057 -0.910087 