# vtk DataFile Version 4.2
3D Slicer output. SPACE=LPS
ASCII
DATASET POLYDATA
POINTS 2496 double
3.5421895981 -3.310883522 -1.3416423798 6.1400318146 -4.1634702682 -0.81942081451 6.1400318146 -4.6914086342 0.053597450256 
5.2740840912 -4.5946516991 0.92661571503 3.5421895981 -3.310883522 -1.3416423798 6.1400318146 -4.6914086342 0.053597450256 
6.1400318146 -4.6914086342 0.053597450256 7.8719263077 -4.9774193764 0.92661571503 5.2740840912 -4.5946516991 0.92661571503 
7.8719263077 -4.9774193764 0.92661571503 7.8719263077 -4.9454679489 1.7996339798 5.2740840912 -4.5946516991 0.92661571503 
5.2740840912 -4.5946516991 0.92661571503 7.8719263077 -4.9454679489 1.7996339798 5.332572937 -4.1636962891 1.7996339798 
7.0059785843 -4.1636962891 2.7190752029 5.332572937 -4.1636962891 1.7996339798 7.8719263077 -4.9454679489 1.7996339798 
6.1400318146 -4.6914086342 0.053597450256 6.1400318146 -4.1634702682 -0.81942081451 7.8719263077 -4.6498718262 0.053597450256 
7.8719263077 -4.6498718262 0.053597450256 7.8719263077 -4.9774193764 0.92661571503 6.1400318146 -4.6914086342 0.053597450256 
7.8719263077 -4.9454679489 1.7996339798 9.6038208008 -4.3043642044 2.6726522446 9.6038208008 -3.310883522 3.8158044815 
7.0059785843 -4.1636962891 2.7190752029 7.8719263077 -4.9454679489 1.7996339798 9.6038208008 -3.310883522 3.8158044815 
7.8719263077 -4.9774193764 0.92661571503 11.335715294 -3.8101296425 1.7996339798 7.8719263077 -4.9454679489 1.7996339798 
11.335715294 -3.8101296425 1.7996339798 9.6038208008 -4.3043642044 2.6726522446 7.8719263077 -4.9454679489 1.7996339798 
3.5421895981 -3.310883522 -1.3416423798 1.810295105 -3.3999986649 0.053597450256 1.810295105 -3.1810822487 -0.81942081451 
3.5421895981 -3.310883522 -1.3416423798 5.2740840912 -4.5946516991 0.92661571503 1.810295105 -3.3999986649 0.053597450256 
5.2740840912 -4.5946516991 0.92661571503 5.332572937 -4.1636962891 1.7996339798 1.810295105 -2.8007631302 0.92661571503 
1.810295105 -2.8007631302 0.92661571503 5.332572937 -4.1636962891 1.7996339798 6.1400318146 -3.310883522 2.9220685959 
5.332572937 -4.1636962891 1.7996339798 7.0059785843 -4.1636962891 2.7190752029 6.1400318146 -3.310883522 2.9220685959 
7.8719263077 -4.6498718262 0.053597450256 6.1400318146 -4.1634702682 -0.81942081451 7.8719263077 -3.310883522 -1.4041643143 
7.0059785843 -4.1636962891 2.7190752029 9.6038208008 -3.310883522 3.8158044815 8.7378730774 -2.458070755 4.1750612259 
7.8719263077 -4.6498718262 0.053597450256 11.335715294 -3.8101296425 1.7996339798 7.8719263077 -4.9774193764 0.92661571503 
9.6038208008 -4.3043642044 2.6726522446 11.335715294 -3.3123579025 3.5456705093 9.6038208008 -3.310883522 3.8158044815 
11.335715294 -3.8101296425 1.7996339798 12.201663017 -3.3594560623 2.6726522446 9.6038208008 -4.3043642044 2.6726522446 
12.201663017 -3.3594560623 2.6726522446 11.335715294 -3.3123579025 3.5456705093 9.6038208008 -4.3043642044 2.6726522446 
13.067610741 -2.8196101189 1.7996339798 12.201663017 -3.3594560623 2.6726522446 11.335715294 -3.8101296425 1.7996339798 
5.2740840912 -4.5946516991 0.92661571503 1.810295105 -2.8007631302 0.92661571503 1.810295105 -3.3999986649 0.053597450256 
3.5421895981 -3.310883522 -1.3416423798 1.810295105 -3.1810822487 -0.81942081451 3.5421895981 -2.458070755 -1.8964757919 
3.5421895981 -2.458070755 -1.8964757919 6.1400318146 -1.605257988 -2.4902143478 6.1400318146 -4.1634702682 -0.81942081451 
3.5421895981 -3.310883522 -1.3416423798 3.5421895981 -2.458070755 -1.8964757919 6.1400318146 -4.1634702682 -0.81942081451 
6.1400318146 -1.605257988 -2.4902143478 7.8719263077 -3.310883522 -1.4041643143 6.1400318146 -4.1634702682 -0.81942081451 
6.1400318146 -3.310883522 2.9220685959 7.0059785843 -4.1636962891 2.7190752029 8.7378730774 -2.458070755 4.1750612259 
7.8719263077 -3.310883522 -1.4041643143 9.6038208008 -0.75244522095 -2.389421463 13.067610741 -0.77338695526 -0.81942081451 
7.8719263077 -3.310883522 -1.4041643143 13.067610741 -0.77338695526 -0.81942081451 7.8719263077 -4.6498718262 0.053597450256 
7.8719263077 -4.6498718262 0.053597450256 13.067610741 -0.77338695526 -0.81942081451 13.067610741 -2.4302778244 0.92661571503 
7.8719263077 -4.6498718262 0.053597450256 13.067610741 -2.4302778244 0.92661571503 11.335715294 -3.8101296425 1.7996339798 
11.335715294 -3.3123579025 3.5456705093 13.067610741 -0.75244522095 5.1385374069 9.6038208008 -3.310883522 3.8158044815 
11.335715294 -3.8101296425 1.7996339798 13.067610741 -2.4302778244 0.92661571503 13.067610741 -2.8196101189 1.7996339798 
12.201663017 -3.3594560623 2.6726522446 13.933556557 -1.6408538818 4.4186887741 11.335715294 -3.3123579025 3.5456705093 
13.067610741 -0.75244522095 5.1385374069 11.335715294 -3.3123579025 3.5456705093 13.933556557 -1.6408538818 4.4186887741 
3.5421895981 -2.458070755 -1.8964757919 1.810295105 -3.1810822487 -0.81942081451 1.810295105 -1.605257988 -1.8014917374 
1.810295105 -0.75244522095 1.7509384155 1.810295105 -2.8007631302 0.92661571503 6.1400318146 -3.310883522 2.9220685959 
13.067610741 -2.4302778244 0.92661571503 13.067610741 -0.77338695526 -0.81942081451 13.933556557 -1.0168199539 0.053597450256 
13.067610741 -2.8196101189 1.7996339798 15.675683022 -0.75244522095 3.5456705093 12.201663017 -3.3594560623 2.6726522446 
15.675683022 -0.75244522095 3.5456705093 13.933556557 -1.6408538818 4.4186887741 12.201663017 -3.3594560623 2.6726522446 
13.067610741 -2.4302778244 0.92661571503 13.933556557 -1.0168199539 0.053597450256 15.053580284 -0.75244522095 0.92661571503 
13.067610741 -2.8196101189 1.7996339798 13.067610741 -2.4302778244 0.92661571503 15.053580284 -0.75244522095 0.92661571503 
0.35846042633 -0.75244522095 0.053597450256 1.810295105 -3.1810822487 -0.81942081451 1.810295105 -3.3999986649 0.053597450256 
1.810295105 -1.605257988 -1.8014917374 1.810295105 -3.1810822487 -0.81942081451 0.35846042633 -0.75244522095 0.053597450256 
0.35846042633 -0.75244522095 0.053597450256 1.810295105 -3.3999986649 0.053597450256 1.810295105 -2.8007631302 0.92661571503 
1.810295105 -2.8007631302 0.92661571503 1.810295105 -0.75244522095 1.7509384155 0.35846042633 -0.75244522095 0.053597450256 
3.5421895981 -0.75244522095 -2.4571523666 1.810295105 -1.605257988 -1.8014917374 1.810295105 0.10036754608 -2.0499629974 
3.5421895981 -2.458070755 -1.8964757919 1.810295105 -1.605257988 -1.8014917374 3.5421895981 -0.75244522095 -2.4571523666 
6.1400318146 -3.310883522 2.9220685959 3.5421895981 0.10036754608 2.4018707275 1.810295105 -0.75244522095 1.7509384155 
6.1400318146 -1.605257988 -2.4902143478 3.5421895981 -2.458070755 -1.8964757919 3.5421895981 -0.75244522095 -2.4571523666 
3.5421895981 -0.75244522095 -2.4571523666 8.7378730774 0.10036754608 -2.9333190918 6.1400318146 -1.605257988 -2.4902143478 
3.5421895981 0.10036754608 2.4018707275 6.1400318146 -3.310883522 2.9220685959 7.8719263077 -0.75244522095 4.3010492325 
7.8719263077 -0.75244522095 4.3010492325 6.1400318146 -3.310883522 2.9220685959 8.7378730774 -2.458070755 4.1750612259 
6.1400318146 -1.605257988 -2.4902143478 8.7378730774 0.10036754608 -2.9333190918 7.8719263077 -3.310883522 -1.4041643143 
12.201663017 0.10036754608 5.3140249252 7.8719263077 -0.75244522095 4.3010492325 8.7378730774 -2.458070755 4.1750612259 
9.6038208008 -3.310883522 3.8158044815 12.201663017 0.10036754608 5.3140249252 8.7378730774 -2.458070755 4.1750612259 
13.067610741 -0.75244522095 5.1385374069 12.201663017 0.10036754608 5.3140249252 9.6038208008 -3.310883522 3.8158044815 
15.675683022 -0.75244522095 3.5456705093 15.665452003 0.10036754608 4.492436409 13.933556557 -1.6408538818 4.4186887741 
16.354694366 0.10036754608 1.7996339798 13.067610741 -2.8196101189 1.7996339798 15.053580284 -0.75244522095 0.92661571503 
13.067610741 -2.8196101189 1.7996339798 16.354694366 0.10036754608 1.7996339798 15.675683022 -0.75244522095 3.5456705093 
1.810295105 0.10036754608 -2.0499629974 1.810295105 -1.605257988 -1.8014917374 0.35846042633 -0.75244522095 0.053597450256 
0.65910816193 0.10036754608 -0.81942081451 1.810295105 0.10036754608 -2.0499629974 0.35846042633 -0.75244522095 0.053597450256 
0.078400611877 0.27549171448 0.053597450256 0.65910816193 0.10036754608 -0.81942081451 0.35846042633 -0.75244522095 0.053597450256 
0.35846042633 -0.75244522095 0.053597450256 1.810295105 1.8059930801 1.573050499 0.078400611877 0.27549171448 0.053597450256 
0.35846042633 -0.75244522095 0.053597450256 1.810295105 -0.75244522095 1.7509384155 1.810295105 1.8059930801 1.573050499 
1.810295105 1.8059930801 1.573050499 1.810295105 -0.75244522095 1.7509384155 3.5421895981 0.10036754608 2.4018707275 
6.1400318146 2.6588058472 -3.3042621613 3.5421895981 -0.75244522095 -2.4571523666 1.810295105 0.10036754608 -2.0499629974 
3.5421895981 -0.75244522095 -2.4571523666 6.1400318146 2.6588058472 -3.3042621613 6.1400318146 0.95318031311 -3.1716117859 
8.7378730774 0.10036754608 -2.9333190918 3.5421895981 -0.75244522095 -2.4571523666 6.1400318146 0.95318031311 -3.1716117859 
7.8719263077 0.10036754608 4.3236436844 3.5421895981 0.10036754608 2.4018707275 7.8719263077 -0.75244522095 4.3010492325 
7.8719263077 -3.310883522 -1.4041643143 8.7378730774 0.10036754608 -2.9333190918 9.6038208008 -0.75244522095 -2.389421463 
9.6038208008 -0.75244522095 -2.389421463 14.79950428 3.5116186142 -2.5902481079 13.067610741 -0.77338695526 -0.81942081451 
12.201663017 0.10036754608 5.3140249252 13.067610741 -0.75244522095 5.1385374069 13.933556557 1.8059930801 5.3713655472 
13.067610741 -0.75244522095 5.1385374069 14.79950428 0.95318031311 5.1847658157 13.933556557 1.8059930801 5.3713655472 
13.067610741 -0.75244522095 5.1385374069 13.933556557 -1.6408538818 4.4186887741 14.79950428 0.95318031311 5.1847658157 
15.665452003 0.10036754608 4.492436409 14.79950428 0.95318031311 5.1847658157 13.933556557 -1.6408538818 4.4186887741 
13.933556557 -1.0168199539 0.053597450256 15.665452003 1.8059930801 -1.049697876 15.053580284 -0.75244522095 0.92661571503 
[...]
CELL_DATA 832
FIELD FieldData 1
GroupIds 1 832 float
0 0 0 0 0 0 0 0 0 
0 0 0 0 0 0 0 0 0 
0 0 0 0 0 0 0 0 0 
0 0 0 0 0 0 0 0 0 
0 0 0 0 0 0 0 0 0 
0 0 0 0 0 0 0 0 0 
0 0 0 0 0 0 0 0 0 
0 0 0 0 0 0 0 0 0 
0 0 0 0 0 0 0 0 0 
0 0 0 0 0 0 0 0 0 
0 0 0 0 0 0 0 0 0 
0 0 0 0 0 0 0 0 0 
0 0 0 0 0 0 0 0 0 
0 0 0 0 0 0 0 0 0 
0 0 0 0 0 0 0 0 0 
0 0 0 0 0 0 0 0 0 
0 0 0 0 0 0 0 0 0 
0 0 0 0 0 0 0 0 0 
0 0 0 0 0 0 0 0 0 
0 0 0 0 0 0 0 0 0 
0 0 0 0 0 0 0 0 0 
0 0 0 0 0 0 0 0 0 
0 0 0 0 0 0 0 0 0 
0 0 0 0 0 0 0 0 0 
0 0 0 0 0 0 0 0 0 
0 0 0 0 0 0 0 0 0 
0 0 0 0 0 0 0 0 0 
0 0 0 0 0 0 0 0 0 
0 0 0 0 0 0 0 0 0 
0 0 0 0 0 0 0 0 0 
0 0 0 0 0 0 0 0 0 
0 0 0 0 0 0 0 0 0 
0 0 0 0 0 0 0 0 0 
0 0 0 0 0 0 0 0 0 
0 0 0 0 0 0 0 0 0 
0 0 0 0 0 0 0 0 0 
0 0 0 0 0 0 0 0 0 
0 0 0 0 0 0 0 0 0 
0 0 0 0 0 0 0 0 0 
0 0 0 0 0 0 0 0 0 
0 0 0 0 0 0 0 0 0 
0 0 0 0 0 0 0 0 0 
0 0 0 0 0 0 0 0 0 
0 0 0 0 0 0 0 0 0 
0 0 0 0 0 0 0 0 0 
0 0 0 0 0 0 0 0 0 
0 0 0 0 0 0 0 0 0 
0 0 0 0 0 0 0 0 0 
0 0 0 0 0 0 0 0 0 
0 0 0 0 0 0 0 0 0 
0 0 0 0 0 0 0 0 0 
0 0 0 0 0 0 0 0 0 
0 0 0 0 0 0 0 0 0 
0 0 0 0 0 0 0 0 0 
0 0 0 0 0 0 0 0 0 
0 0 0 0 0 0 0 0 0 
0 0 0 0 0 0 0 0 0 
0 0 0 0 0 0 0 0 0 
0 0 0 0 0 0 0 0 0 
0 0 0 0 0 0 0 0 0 
0 0 0 0 0 0 0 0 0 
0 0 0 0 0 0 0 0 0 
0 0 0 0 0 0 0 0 0 
0 0 0 0 0 0 0 0 0 
0 0 0 0 0 0 0 0 0 
0 0 0 0 0 0 0 0 0 
0 0 0 0 0 0 0 0 0 
0 0 0 0 0 0 0 0 0 
0 0 0 0 0 0 0 0 0 
0 0 0 0 0 0 0 0 0 
0 0 0 0 0 0 0 0 0 
0 0 0 0 0 0 0 0 0 
0 0 0 0 0 0 0 0 0 
0 0 0 0 0 0 0 0 0 
0 0 0 0 0 0 0 0 0 
0 0 0 0 0 0 0 0 0 
0 0 0 0 0 0 0 0 0 
0 0 0 0 0 0 0 0 0 
0 0 0 0 0 0 0 0 0 
0 0 0 0 0 0 0 0 0 
0 0 0 0 0 0 0 0 0 
0 0 0 0 0 0 0 0 0 
0 0 0 0 0 0 0 0 0 
0 0 0 0 0 0 0 0 0 
0 0 0 0 0 0 0 0 0 
0 0 0 0 0 0 0 0 0 
0 0 0 0 0 0 0 0 0 
0 0 0 0 0 0 0 0 0 
0 0 0 0 0 0 0 0 0 
0 0 0 0 0 0 0 0 0 
0 0 0 0 0 0 0 0 0 
0 0 0 0 0 0 0 0 0 
0 0 0 0 
POINT_DATA 2496
NORMALS Normals float
-0.174111 -0.842633 -0.509564 -0.174111 -0.842633 -0.509564 -0.174111 -0.842633 -0.509564 
-0.348713 -0.904465 -0.245646 -0.348713 -0.904465 -0.245646 -0.348713 -0.904465 -0.245646 
-0.145678 -0.988716 -0.0349184 -0.145678 -0.988716 -0.0349184 -0.145678 -0.988716 -0.0349184 
-0.145671 -0.988671 0.0361842 -0.145671 -0.988671 0.0361842 -0.145671 -0.988671 0.0361842 
-0.264063 -0.857731 0.4411 -0.264063 -0.857731 0.4411 -0.264063 -0.857731 0.4411 
-0.259383 -0.84253 0.472084 -0.259383 -0.84253 0.472084 -0.259383 -0.84253 0.472084 
0.0205184 -0.855523 -0.517358 0.0205184 -0.855523 -0.517358 0.0205184 -0.855523 -0.517358 
0.0224493 -0.936035 -0.351191 0.0224493 -0.936035 -0.351191 0.0224493 -0.936035 -0.351191 
-0.0511899 -0.753801 0.655106 -0.0511899 -0.753801 0.655106 -0.0511899 -0.753801 0.655106 
-0.0168924 -0.769525 0.638393 -0.0168924 -0.769525 0.638393 -0.0168924 -0.769525 0.638393 
0.311281 -0.949682 0.0347572 0.311281 -0.949682 0.0347572 0.311281 -0.949682 0.0347572 
0.310479 -0.947235 0.0796774 0.310479 -0.947235 0.0796774 0.310479 -0.947235 0.0796774 
-0.144505 -0.959789 -0.240675 -0.144505 -0.959789 -0.240675 -0.144505 -0.959789 -0.240675 
-0.228325 -0.911672 -0.341646 -0.228325 -0.911672 -0.341646 -0.228325 -0.911672 -0.341646 
-0.416341 -0.803905 0.424732 -0.416341 -0.803905 0.424732 -0.416341 -0.803905 0.424732 
-0.398504 -0.569215 0.719159 -0.398504 -0.569215 0.719159 -0.398504 -0.569215 0.719159 
-0.394946 -0.572126 0.718811 -0.394946 -0.572126 0.718811 -0.394946 -0.572126 0.718811 
0.132966 -0.729933 -0.670461 0.132966 -0.729933 -0.670461 0.132966 -0.729933 -0.670461 
-0.17671 -0.529068 0.829976 -0.17671 -0.529068 0.829976 -0.17671 -0.529068 0.829976 
0.374632 -0.868086 -0.325697 0.374632 -0.868086 -0.325697 0.374632 -0.868086 -0.325697 
0.101151 -0.750919 0.652602 0.101151 -0.750919 0.652602 0.101151 -0.750919 0.652602 
0.338229 -0.929897 0.144545 0.338229 -0.929897 0.144545 0.338229 -0.929897 0.144545 
0.318484 -0.875611 0.363143 0.318484 -0.875611 0.363143 0.318484 -0.875611 0.363143 
0.495979 -0.867205 -0.0442893 0.495979 -0.867205 -0.0442893 0.495979 -0.867205 -0.0442893 
-0.39269 -0.758238 0.520451 -0.39269 -0.758238 0.520451 -0.39269 -0.758238 0.520451 
-0.281728 -0.523248 -0.804264 -0.281728 -0.523248 -0.804264 -0.281728 -0.523248 -0.804264 
-0.0118459 -0.546779 -0.837193 -0.0118459 -0.546779 -0.837193 -0.0118459 -0.546779 -0.837193 
-0.0104745 -0.545307 -0.838171 -0.0104745 -0.545307 -0.838171 -0.0104745 -0.545307 -0.838171 
-0.0134917 -0.546768 -0.837176 -0.0134917 -0.546768 -0.837176 -0.0134917 -0.546768 -0.837176 
-0.257133 -0.462998 0.848242 -0.257133 -0.462998 0.848242 -0.257133 -0.462998 0.848242 
0.34684 -0.532204 -0.772309 0.34684 -0.532204 -0.772309 0.34684 -0.532204 -0.772309 
0.399522 -0.675142 -0.620134 0.399522 -0.675142 -0.620134 0.399522 -0.675142 -0.620134 
0.391565 -0.667461 -0.633383 0.391565 -0.667461 -0.633383 0.391565 -0.667461 -0.633383 
0.414375 -0.797515 -0.438478 0.414375 -0.797515 -0.438478 0.414375 -0.797515 -0.438478 
0.124659 -0.583619 0.802402 0.124659 -0.583619 0.802402 0.124659 -0.583619 0.802402 
0.462985 -0.809515 -0.361013 0.462985 -0.809515 -0.361013 0.462985 -0.809515 -0.361013 
0.384269 -0.819393 0.425362 0.384269 -0.819393 0.425362 0.384269 -0.819393 0.425362 
0.0929158 -0.570584 0.815966 0.0929158 -0.570584 0.815966 0.0929158 -0.570584 0.815966 
-0.29347 -0.505618 -0.811311 -0.29347 -0.505618 -0.811311 -0.29347 -0.505618 -0.811311 
-0.426497 -0.337682 0.839089 -0.426497 -0.337682 0.839089 -0.426497 -0.337682 0.839089 
0.440052 -0.651373 -0.618116 0.440052 -0.651373 -0.618116 0.440052 -0.651373 -0.618116 
0.585067 -0.806892 0.0813733 0.585067 -0.806892 0.0813733 0.585067 -0.806892 0.0813733 
0.538042 -0.802909 0.25661 0.538042 -0.802909 0.25661 0.538042 -0.802909 0.25661 
0.554213 -0.655996 -0.512364 0.554213 -0.655996 -0.512364 0.554213 -0.655996 -0.512364 
0.610885 -0.723075 -0.322463 0.610885 -0.723075 -0.322463 0.610885 -0.723075 -0.322463 
-0.870515 -0.477363 -0.119703 -0.870515 -0.477363 -0.119703 -0.870515 -0.477363 -0.119703 
-0.812765 -0.308136 -0.494434 -0.812765 -0.308136 -0.494434 -0.812765 -0.308136 -0.494434 
-0.832645 -0.456596 0.313405 -0.832645 -0.456596 0.313405 -0.832645 -0.456596 0.313405 
-0.735188 -0.253073 0.62885 -0.735188 -0.253073 0.62885 -0.735188 -0.253073 0.62885 
-0.290543 -0.137937 -0.946868 -0.290543 -0.137937 -0.946868 -0.290543 -0.137937 -0.946868 
-0.201645 -0.305868 -0.930475 -0.201645 -0.305868 -0.930475 -0.201645 -0.305868 -0.930475 
-0.310304 -0.0920259 0.946173 -0.310304 -0.0920259 0.946173 -0.310304 -0.0920259 0.946173 
-0.11386 -0.310252 -0.943811 -0.11386 -0.310252 -0.943811 -0.11386 -0.310252 -0.943811 
-0.0643828 -0.157923 -0.98535 -0.0643828 -0.157923 -0.98535 -0.0643828 -0.157923 -0.98535 
-0.425437 -0.18903 0.885026 -0.425437 -0.18903 0.885026 -0.425437 -0.18903 0.885026 
-0.354198 -0.246462 0.902109 -0.354198 -0.246462 0.902109 -0.354198 -0.246462 0.902109 
0.132384 -0.433238 -0.891504 0.132384 -0.433238 -0.891504 0.132384 -0.433238 -0.891504 
-0.192786 -0.169272 0.96653 -0.192786 -0.169272 0.96653 -0.192786 -0.169272 0.96653 
-0.00926866 -0.396182 0.918125 -0.00926866 -0.396182 0.918125 -0.00926866 -0.396182 0.918125 
-0.12345 -0.318733 0.939771 -0.12345 -0.318733 0.939771 -0.12345 -0.318733 0.939771 
0.581332 -0.60143 0.548028 0.581332 -0.60143 0.548028 0.581332 -0.60143 0.548028 
0.642839 -0.723658 -0.251154 0.642839 -0.723658 -0.251154 0.642839 -0.723658 -0.251154 
0.660364 -0.743386 -0.106283 0.660364 -0.743386 -0.106283 0.660364 -0.743386 -0.106283 
-0.803364 -0.0858431 -0.589268 -0.803364 -0.0858431 -0.589268 -0.803364 -0.0858431 -0.589268 
-0.667948 -0.404202 -0.624873 -0.667948 -0.404202 -0.624873 -0.667948 -0.404202 -0.624873 
-0.831326 -0.226493 -0.507541 -0.831326 -0.226493 -0.507541 -0.831326 -0.226493 -0.507541 
-0.57033 -0.155385 0.806585 -0.57033 -0.155385 0.806585 -0.57033 -0.155385 0.806585 
-0.759151 0.045149 0.649346 -0.759151 0.045149 0.649346 -0.759151 0.045149 0.649346 
-0.37864 0.064198 0.923315 -0.37864 0.064198 0.923315 -0.37864 0.064198 0.923315 
-0.251265 -0.048706 -0.966692 -0.251265 -0.048706 -0.966692 -0.251265 -0.048706 -0.966692 
-0.217918 -0.0756747 -0.973029 -0.217918 -0.0756747 -0.973029 -0.217918 -0.0756747 -0.973029 
-0.0285914 -0.34884 -0.936746 -0.0285914 -0.34884 -0.936746 -0.0285914 -0.34884 -0.936746 
-0.405569 -0.0242088 0.913744 -0.405569 -0.0242088 0.913744 -0.405569 -0.0242088 0.913744 
0.13308 -0.433345 -0.891348 0.13308 -0.433345 -0.891348 0.13308 -0.433345 -0.891348 
0.360455 -0.476962 -0.801611 0.360455 -0.476962 -0.801611 0.360455 -0.476962 -0.801611 
0.0838752 -0.11843 0.989414 0.0838752 -0.11843 0.989414 0.0838752 -0.11843 0.989414 
0.0932829 -0.121503 0.988198 0.0932829 -0.121503 0.988198 0.0932829 -0.121503 0.988198 
0.340346 -0.369028 0.86486 0.340346 -0.369028 0.86486 0.340346 -0.369028 0.86486 
0.332492 -0.367499 0.868558 0.332492 -0.367499 0.868558 0.332492 -0.367499 0.868558 
0.581597 -0.579833 -0.57056 0.581597 -0.579833 -0.57056 0.581597 -0.579833 -0.57056 
0.683427 -0.541579 -0.48951 0.683427 -0.541579 -0.48951 0.683427 -0.541579 -0.48951 
0.821781 -0.568251 0.0420302 0.821781 -0.568251 0.0420302 0.821781 -0.568251 0.0420302 
0.729384 -0.50436 0.462191 0.729384 -0.50436 0.462191 0.729384 -0.50436 0.462191 
-0.728754 0.0642048 -0.681759 -0.728754 0.0642048 -0.681759 -0.728754 0.0642048 -0.681759 
-0.404526 0.0756482 0.911393 -0.404526 0.0756482 0.911393 -0.404526 0.0756482 0.911393 
0.0193688 -0.213898 -0.976664 0.0193688 -0.213898 -0.976664 0.0193688 -0.213898 -0.976664 
-0.22427 -0.0258101 0.974185 -0.22427 -0.0258101 0.974185 -0.22427 -0.0258101 0.974185 
-0.222394 -0.0284708 0.974541 -0.222394 -0.0284708 0.974541 -0.222394 -0.0284708 0.974541 
-0.0786297 0.0463625 0.995825 -0.0786297 0.0463625 0.995825 -0.0786297 0.0463625 0.995825 
0.502121 -0.564225 -0.655382 0.502121 -0.564225 -0.655382 0.502121 -0.564225 -0.655382 
0.591086 -0.621024 -0.51473 0.591086 -0.621024 -0.51473 0.591086 -0.621024 -0.51473 
-0.796071 0.202816 -0.570208 -0.796071 0.202816 -0.570208 -0.796071 0.202816 -0.570208 
-0.83424 0.212541 -0.508793 -0.83424 0.212541 -0.508793 -0.83424 0.212541 -0.508793 
-0.357989 0.154368 -0.920877 -0.357989 0.154368 -0.920877 -0.357989 0.154368 -0.920877 
-0.366703 0.0781342 0.927051 -0.366703 0.0781342 0.927051 -0.366703 0.0781342 0.927051 
-0.462638 0.241412 0.853045 -0.462638 0.241412 0.853045 -0.462638 0.241412 0.853045 
0.256688 -0.320811 -0.911697 0.256688 -0.320811 -0.911697 0.256688 -0.320811 -0.911697 
0.267814 -0.368258 -0.890316 0.267814 -0.368258 -0.890316 0.267814 -0.368258 -0.890316 
0.413785 -0.485499 -0.770112 0.413785 -0.485499 -0.770112 0.413785 -0.485499 -0.770112 
0.719497 -0.318573 0.617118 0.719497 -0.318573 0.617118 0.719497 -0.318573 0.617118 
0.483069 -0.20127 0.852135 0.483069 -0.20127 0.852135 0.483069 -0.20127 0.852135 
0.837961 -0.511757 -0.189542 0.837961 -0.511757 -0.189542 0.837961 -0.511757 -0.189542 
0.815151 -0.57723 0.0483157 0.815151 -0.57723 0.0483157 0.815151 -0.57723 0.0483157 
0.814986 -0.376262 0.44071 0.814986 -0.376262 0.44071 0.814986 -0.376262 0.44071 
0.704725 -0.325357 0.630481 0.704725 -0.325357 0.630481 0.704725 -0.325357 0.630481 
-0.66331 0.401407 -0.631579 -0.66331 0.401407 -0.631579 -0.66331 0.401407 -0.631579 
-0.899473 0.414641 -0.137917 -0.899473 0.414641 -0.137917 -0.899473 0.414641 -0.137917 
-0.828003 0.381694 0.410757 -0.828003 0.381694 0.410757 -0.828003 0.381694 0.410757 
-0.763071 0.290098 0.577552 -0.763071 0.290098 0.577552 -0.763071 0.290098 0.577552 
-0.480561 0.445694 -0.75526 -0.480561 0.445694 -0.75526 -0.480561 0.445694 -0.75526 
-0.334391 -0.0111507 -0.942368 -0.334391 -0.0111507 -0.942368 -0.334391 -0.0111507 -0.942368 
-0.120273 -0.0769753 -0.989752 -0.120273 -0.0769753 -0.989752 -0.120273 -0.0769753 -0.989752 
0.0226443 -0.21921 -0.975415 0.0226443 -0.21921 -0.975415 0.0226443 -0.21921 -0.975415 
-0.307043 0.134617 0.942127 -0.307043 0.134617 0.942127 -0.307043 0.134617 0.942127 
-0.286697 0.112209 0.951427 -0.286697 0.112209 0.951427 -0.286697 0.112209 0.951427 
-0.0786964 0.0213548 0.99667 -0.0786964 0.0213548 0.99667 -0.0786964 0.0213548 0.99667 
-0.176976 0.226336 0.957837 -0.176976 0.226336 0.957837 -0.176976 0.226336 0.957837 
0.446283 -0.464366 -0.764981 0.446283 -0.464366 -0.764981 0.446283 -0.464366 -0.764981 
0.519116 -0.461836 -0.719184 0.519116 -0.461836 -0.719184 0.519116 -0.461836 -0.719184 
0.597203 -0.569355 -0.564963 0.597203 -0.569355 -0.564963 0.597203 -0.569355 -0.564963 
-0.848273 0.513338 -0.130066 -0.848273 0.513338 -0.130066 -0.848273 0.513338 -0.130066 
-0.707644 0.685182 0.172528 -0.707644 0.685182 0.172528 -0.707644 0.685182 0.172528 
-0.438854 0.578521 -0.687546 -0.438854 0.578521 -0.687546 -0.438854 0.578521 -0.687546 
-0.383134 0.414599 0.825419 -0.383134 0.414599 0.825419 -0.383134 0.414599 0.825419 
-0.302046 0.259588 0.917269 -0.302046 0.259588 0.917269 -0.302046 0.259588 0.917269 
-0.332538 0.291596 0.896878 -0.332538 0.291596 0.896878 -0.332538 0.291596 0.896878 
0.167314 -0.309812 -0.935961 0.167314 -0.309812 -0.935961 0.167314 -0.309812 -0.935961 
0.108275 0.208696 0.971968 0.108275 0.208696 0.971968 0.108275 0.208696 0.971968 
0.231124 0.0218571 0.972679 0.231124 0.0218571 0.972679 0.231124 0.0218571 0.972679 
0.442741 -0.137269 0.88608 0.442741 -0.137269 0.88608 0.442741 -0.137269 0.88608 
0.824285 -0.534594 -0.186448 0.824285 -0.534594 -0.186448 0.824285 -0.534594 -0.186448 
-0.711825 0.68923 0.135159 -0.711825 0.68923 0.135159 -0.711825 0.68923 0.135159 
-0.603264 0.795256 -0.0603453 -0.603264 0.795256 -0.0603453 -0.603264 0.795256 -0.0603453 
-0.522255 0.739164 0.425308 -0.522255 0.739164 0.425308 -0.522255 0.739164 0.425308 
-0.597112 0.218335 -0.771872 -0.597112 0.218335 -0.771872 -0.597112 0.218335 -0.771872 
-0.404986 0.57319 0.712348 -0.404986 0.57319 0.712348 -0.404986 0.57319 0.712348 
-0.38243 0.417166 0.824451 -0.38243 0.417166 0.824451 -0.38243 0.417166 0.824451 
-0.26427 0.066935 -0.962123 -0.26427 0.066935 -0.962123 -0.26427 0.066935 -0.962123 
-0.112257 -0.0931091 -0.989307 -0.112257 -0.0931091 -0.989307 -0.112257 -0.0931091 -0.989307 
-0.392371 0.418634 0.819018 -0.392371 0.418634 0.819018 -0.392371 0.418634 0.819018 
-0.177143 0.222339 0.958742 -0.177143 0.222339 0.958742 -0.177143 0.222339 0.958742 
0.298516 -0.316307 -0.900466 0.298516 -0.316307 -0.900466 0.298516 -0.316307 -0.900466 
0.147871 0.0581013 0.987299 0.147871 0.0581013 0.987299 0.147871 0.0581013 0.987299 
-0.0201216 0.225866 0.973951 -0.0201216 0.225866 0.973951 -0.0201216 0.225866 0.973951 
0.582007 -0.0572656 0.811165 0.582007 -0.0572656 0.811165 0.582007 -0.0572656 0.811165 
0.643359 -0.110791 0.757505 0.643359 -0.110791 0.757505 0.643359 -0.110791 0.757505 
0.899268 -0.335414 0.28074 0.899268 -0.335414 0.28074 0.899268 -0.335414 0.28074 
0.862152 -0.321571 0.391518 0.862152 -0.321571 0.391518 0.862152 -0.321571 0.391518 
-0.339258 0.245616 -0.908062 -0.339258 0.245616 -0.908062 -0.339258 0.245616 -0.908062 
-0.226931 0.351132 0.90841 -0.226931 0.351132 0.90841 -0.226931 0.351132 0.90841 
-0.357854 0.400724 0.843422 -0.357854 0.400724 0.843422 -0.357854 0.400724 0.843422 
0.519849 -0.461304 -0.718996 0.519849 -0.461304 -0.718996 0.519849 -0.461304 -0.718996 
0.780237 -0.567621 -0.262747 0.780237 -0.567621 -0.262747 0.780237 -0.567621 -0.262747 
0.773287 -0.426123 -0.469516 0.773287 -0.426123 -0.469516 0.773287 -0.426123 -0.469516 
0.756791 -0.130324 0.640534 0.756791 -0.130324 0.640534 0.756791 -0.130324 0.640534 
0.856293 -0.480886 0.188443 0.856293 -0.480886 0.188443 0.856293 -0.480886 0.188443 
-0.607687 0.512912 -0.606332 -0.607687 0.512912 -0.606332 -0.607687 0.512912 -0.606332 
-0.629743 0.774577 -0.0587762 -0.629743 0.774577 -0.0587762 -0.629743 0.774577 -0.0587762 
-0.514784 0.776081 0.364275 -0.514784 0.776081 0.364275 -0.514784 0.776081 0.364275 
-0.458277 0.77093 0.442323 -0.458277 0.77093 0.442323 -0.458277 0.77093 0.442323 
-0.380039 0.639315 0.668466 -0.380039 0.639315 0.668466 -0.380039 0.639315 0.668466 
-0.325494 0.367465 -0.87122 -0.325494 0.367465 -0.87122 -0.325494 0.367465 -0.87122 
-0.0272137 -0.0065382 -0.999608 -0.0272137 -0.0065382 -0.999608 -0.0272137 -0.0065382 -0.999608 
0.103837 -0.139102 -0.984819 0.103837 -0.139102 -0.984819 0.103837 -0.139102 -0.984819 
-0.357786 0.470477 0.806623 -0.357786 0.470477 0.806623 -0.357786 0.470477 0.806623 
0.115833 -0.142962 -0.982926 0.115833 -0.142962 -0.982926 0.115833 -0.142962 -0.982926 
0.645347 -0.469489 -0.602584 0.645347 -0.469489 -0.602584 0.645347 -0.469489 -0.602584 
-0.548137 0.82737 0.122496 -0.548137 0.82737 0.122496 -0.548137 0.82737 0.122496 
-0.548714 0.827234 0.120821 -0.548714 0.827234 0.120821 -0.548714 0.827234 0.120821 
-0.499905 0.564365 -0.656953 -0.499905 0.564365 -0.656953 -0.499905 0.564365 -0.656953 
-0.509836 0.769558 -0.38451 -0.509836 0.769558 -0.38451 -0.509836 0.769558 -0.38451 
-0.605085 0.202793 -0.769901 -0.605085 0.202793 -0.769901 -0.605085 0.202793 -0.769901 
-0.504633 0.596713 0.623922 -0.504633 0.596713 0.623922 -0.504633 0.596713 0.623922 
-0.111323 0.25313 -0.961006 -0.111323 0.25313 -0.961006 -0.111323 0.25313 -0.961006 
-0.385139 0.545879 0.744099 -0.385139 0.545879 0.744099 -0.385139 0.545879 0.744099 
-0.0193795 0.346014 0.938029 -0.0193795 0.346014 0.938029 -0.0193795 0.346014 0.938029 
0.303793 -0.353337 -0.884795 0.303793 -0.353337 -0.884795 0.303793 -0.353337 -0.884795 
0.314329 0.143452 0.938413 0.314329 0.143452 0.938413 0.314329 0.143452 0.938413 
0.553126 -0.0118215 0.833014 0.553126 -0.0118215 0.833014 0.553126 -0.0118215 0.833014 
0.507777 0.0028288 0.861484 0.507777 0.0028288 0.861484 0.507777 0.0028288 0.861484 
0.713261 -0.227957 0.662793 0.713261 -0.227957 0.662793 0.713261 -0.227957 0.662793 
0.741058 -0.239646 0.627218 0.741058 -0.239646 0.627218 0.741058 -0.239646 0.627218 
-0.478814 0.705256 0.52283 -0.478814 0.705256 0.52283 -0.478814 0.705256 0.52283 
-0.490973 0.723166 0.485774 -0.490973 0.723166 0.485774 -0.490973 0.723166 0.485774 
0.184461 -0.0725442 -0.980159 0.184461 -0.0725442 -0.980159 0.184461 -0.0725442 -0.980159 
-0.17897 -0.072619 -0.981171 -0.17897 -0.072619 -0.981171 -0.17897 -0.072619 -0.981171 
0.436521 -0.36722 -0.82134 0.436521 -0.36722 -0.82134 0.436521 -0.36722 -0.82134 
0.77115 -0.581284 -0.259687 0.77115 -0.581284 -0.259687 0.77115 -0.581284 -0.259687 
0.850791 -0.521523 0.0645594 0.850791 -0.521523 0.0645594 0.850791 -0.521523 0.0645594 
0.822423 -0.504134 0.26357 0.822423 -0.504134 0.26357 0.822423 -0.504134 0.26357 
-0.451777 0.833998 -0.316772 -0.451777 0.833998 -0.316772 -0.451777 0.833998 -0.316772 
-0.47572 0.878198 -0.0495775 -0.47572 0.878198 -0.0495775 -0.47572 0.878198 -0.0495775 
-0.52808 0.838192 0.13626 -0.52808 0.838192 0.13626 -0.52808 0.838192 0.13626 
-0.498122 0.790642 0.356034 -0.498122 0.790642 0.356034 -0.498122 0.790642 0.356034 
-0.316252 0.60263 -0.732682 -0.316252 0.60263 -0.732682 -0.316252 0.60263 -0.732682 
-0.434252 0.827483 -0.355945 -0.434252 0.827483 -0.355945 -0.434252 0.827483 -0.355945 
-0.147747 0.152183 -0.977247 -0.147747 0.152183 -0.977247 -0.147747 0.152183 -0.977247 
-0.299924 0.590483 -0.74925 -0.299924 0.590483 -0.74925 -0.299924 0.590483 -0.74925 
-0.371409 0.58919 0.717573 -0.371409 0.58919 0.717573 -0.371409 0.58919 0.717573 
-0.14318 0.424721 0.89393 -0.14318 0.424721 0.89393 -0.14318 0.424721 0.89393 
0.154472 -0.20585 -0.966315 0.154472 -0.20585 -0.966315 0.154472 -0.20585 -0.966315 
0.345451 -0.505411 -0.79071 0.345451 -0.505411 -0.79071 0.345451 -0.505411 -0.79071 
-0.44933 0.712801 0.538533 -0.44933 0.712801 0.538533 -0.44933 0.712801 0.538533 
-0.583732 -0.0399077 -0.810965 -0.583732 -0.0399077 -0.810965 -0.583732 -0.0399077 -0.810965 
-0.0766927 -0.226214 -0.971054 -0.0766927 -0.226214 -0.971054 -0.0766927 -0.226214 -0.971054 
0.142887 -0.424998 -0.893846 0.142887 -0.424998 -0.893846 0.142887 -0.424998 -0.893846 
0.498053 -0.467017 -0.730643 0.498053 -0.467017 -0.730643 0.498053 -0.467017 -0.730643 
0.563745 -0.517428 -0.643786 0.563745 -0.517428 -0.643786 0.563745 -0.517428 -0.643786 