# vtk DataFile Version 4.2
3D Slicer output. SPACE=LPS
ASCII
DATASET POLYDATA
POINTS 2700 double
5.6741566658 -4.0430874825 -0.16487407684 5.6741566658 -4.0971250534 1.3893709183 4.0868763924 -3.8932609558 -0.16487407684 
5.6741566658 -4.0430874825 -0.16487407684 7.2614378929 -3.9921374321 2.1664934158 5.6741566658 -4.0971250534 1.3893709183 
5.6741566658 -4.0430874825 -0.16487407684 8.0550785065 -3.9635882378 0.61224842072 7.2614378929 -3.9921374321 2.1664934158 
4.0868763924 -3.8932609558 -0.16487407684 2.4482359886 -3.4259943962 0.61224842072 1.7059555054 -3.2976565361 -0.16487407684 
4.0868763924 -3.8932609558 -0.16487407684 5.6741566658 -3.4259943962 -0.98328208923 5.6741566658 -4.0430874825 -0.16487407684 
4.0868763924 -3.8932609558 -0.16487407684 5.6741566658 -4.0971250534 1.3893709183 2.4482359886 -3.4259943962 0.61224842072 
7.2614378929 -3.4259943962 2.9052791595 2.4482359886 -3.4259943962 0.61224842072 5.6741566658 -4.0971250534 1.3893709183 
5.6741566658 -4.0971250534 1.3893709183 7.2614378929 -3.9921374321 2.1664934158 7.2614378929 -3.4259943962 2.9052791595 
5.6741566658 -4.0430874825 -0.16487407684 5.6741566658 -3.4259943962 -0.98328208923 7.2614378929 -3.4259943962 -0.56901836395 
5.6741566658 -4.0430874825 -0.16487407684 7.2614378929 -3.4259943962 -0.56901836395 8.0550785065 -3.9635882378 0.61224842072 
8.0550785065 -3.9635882378 0.61224842072 9.6423587799 -3.3698563576 1.3893709183 7.2614378929 -3.9921374321 2.1664934158 
7.2614378929 -3.9921374321 2.1664934158 9.6423587799 -3.3698563576 1.3893709183 10.435998917 -2.7631554604 2.9436159134 
7.2614378929 -3.4259943962 2.9052791595 7.2614378929 -3.9921374321 2.1664934158 10.435998917 -2.7631554604 2.9436159134 
1.7059555054 -3.0384531021 0.61224842072 1.7059555054 -3.2976565361 -0.16487407684 2.4482359886 -3.4259943962 0.61224842072 
2.4482359886 -3.4259943962 0.61224842072 2.4995956421 -2.644777298 1.4120063782 1.7059555054 -3.0384531021 0.61224842072 
1.7059555054 -3.2976565361 -0.16487407684 1.7059555054 -1.8635601997 -1.5400657654 3.2932357788 -2.644777298 -1.4726295471 
4.0868763924 -3.8932609558 -0.16487407684 1.7059555054 -3.2976565361 -0.16487407684 3.2932357788 -2.644777298 -1.4726295471 
5.6741566658 -3.4259943962 -0.98328208923 4.0868763924 -3.8932609558 -0.16487407684 3.2932357788 -2.644777298 -1.4726295471 
6.4677968025 -2.644777298 3.200761795 2.4482359886 -3.4259943962 0.61224842072 7.2614378929 -3.4259943962 2.9052791595 
6.4677968025 -2.644777298 3.200761795 2.4995956421 -2.644777298 1.4120063782 2.4482359886 -3.4259943962 0.61224842072 
6.4677968025 -2.644777298 3.200761795 7.2614378929 -3.4259943962 2.9052791595 7.2614378929 -1.8635601997 3.7835578918 
7.2614378929 -3.4259943962 2.9052791595 10.435998917 -2.7631554604 2.9436159134 9.6423587799 -1.8635601997 4.1298561096 
8.0550785065 -3.9635882378 0.61224842072 7.2614378929 -3.4259943962 -0.56901836395 8.8487186432 -1.8635601997 -1.1079301834 
8.0550785065 -3.9635882378 0.61224842072 8.8487186432 -1.8635601997 -1.1079301834 11.062440872 -1.8635601997 0.61224842072 
11.062440872 -1.8635601997 0.61224842072 9.6423587799 -3.3698563576 1.3893709183 8.0550785065 -3.9635882378 0.61224842072 
0.12867116928 -0.30112600327 -0.16487407684 1.7059555054 -1.8635601997 -1.5400657654 1.7059555054 -3.2976565361 -0.16487407684 
1.7059555054 -3.2976565361 -0.16487407684 0.692070961 -1.0823431015 0.61224842072 0.12867116928 -0.30112600327 -0.16487407684 
1.7059555054 -3.2976565361 -0.16487407684 1.7059555054 -3.0384531021 0.61224842072 0.692070961 -1.0823431015 0.61224842072 
1.7059555054 -3.0384531021 0.61224842072 2.4995956421 -2.644777298 1.4120063782 2.4995956421 -1.8635601997 1.7875576019 
1.7059555054 -1.8635601997 -1.5400657654 1.7059555054 -0.30112600327 -1.9033288956 4.8805165291 -1.0823431015 -2.2689166069 
3.2932357788 -2.644777298 -1.4726295471 1.7059555054 -1.8635601997 -1.5400657654 4.8805165291 -1.0823431015 -2.2689166069 
6.4677968025 -1.8635601997 3.5592403412 2.4995956421 -2.644777298 1.4120063782 6.4677968025 -2.644777298 3.200761795 
6.4677968025 -1.8635601997 3.5592403412 2.4995956421 -1.8635601997 1.7875576019 2.4995956421 -2.644777298 1.4120063782 
3.2932357788 -2.644777298 -1.4726295471 4.8805165291 -1.0823431015 -2.2689166069 5.6741566658 -1.8635601997 -1.9658927917 
5.6741566658 -3.4259943962 -0.98328208923 3.2932357788 -2.644777298 -1.4726295471 5.6741566658 -1.8635601997 -1.9658927917 
7.2614378929 -1.0823431015 -2.0442171097 5.6741566658 -3.4259943962 -0.98328208923 5.6741566658 -1.8635601997 -1.9658927917 
6.4677968025 -1.8635601997 3.5592403412 6.4677968025 -2.644777298 3.200761795 7.2614378929 -1.8635601997 3.7835578918 
7.2614378929 -3.4259943962 -0.56901836395 5.6741566658 -3.4259943962 -0.98328208923 8.8487186432 -1.8635601997 -1.1079301834 
8.8487186432 -1.8635601997 -1.1079301834 5.6741566658 -3.4259943962 -0.98328208923 7.2614378929 -1.0823431015 -2.0442171097 
7.2614378929 -1.8635601997 3.7835578918 7.2614378929 -3.4259943962 2.9052791595 9.6423587799 -1.8635601997 4.1298561096 
8.8487186432 -1.8635601997 -1.1079301834 10.651885986 -0.30112600327 -0.9419965744 11.062440872 -1.8635601997 0.61224842072 
11.229639053 -1.8635601997 3.8049526215 9.6423587799 -1.8635601997 4.1298561096 10.435998917 -2.7631554604 2.9436159134 
11.062440872 -1.8635601997 0.61224842072 11.920095444 -1.8635601997 2.1664934158 9.6423587799 -3.3698563576 1.3893709183 
11.920095444 -1.8635601997 2.1664934158 10.435998917 -2.7631554604 2.9436159134 9.6423587799 -3.3698563576 1.3893709183 
2.4995956421 -1.8635601997 1.7875576019 1.7059555054 -0.30112600327 1.8132896423 0.692070961 -1.0823431015 0.61224842072 
1.7059555054 -3.0384531021 0.61224842072 2.4995956421 -1.8635601997 1.7875576019 0.692070961 -1.0823431015 0.61224842072 
2.4995956421 -1.8635601997 1.7875576019 6.4677968025 -1.8635601997 3.5592403412 5.6741566658 -0.30112600327 3.6272420883 
7.2614378929 -1.0823431015 -2.0442171097 5.6741566658 -1.8635601997 -1.9658927917 4.8805165291 -1.0823431015 -2.2689166069 
6.4677968025 -1.8635601997 3.5592403412 8.0550785065 -0.30112600327 4.4786901474 5.6741566658 -0.30112600327 3.6272420883 
6.4677968025 -1.8635601997 3.5592403412 7.2614378929 -1.8635601997 3.7835578918 8.0550785065 -0.30112600327 4.4786901474 
9.6423587799 -1.0823431015 4.561170578 8.0550785065 -0.30112600327 4.4786901474 7.2614378929 -1.8635601997 3.7835578918 
8.8487186432 -0.30112600327 -1.9227132797 8.8487186432 -1.8635601997 -1.1079301834 7.2614378929 -1.0823431015 -2.0442171097 
9.6423587799 -1.8635601997 4.1298561096 9.6423587799 -1.0823431015 4.561170578 7.2614378929 -1.8635601997 3.7835578918 
11.229639053 -1.1491689682 4.4978609085 9.6423587799 -1.0823431015 4.561170578 9.6423587799 -1.8635601997 4.1298561096 
11.229639053 -1.8635601997 3.8049526215 11.229639053 -1.1491689682 4.4978609085 9.6423587799 -1.8635601997 4.1298561096 
11.920095444 -1.8635601997 2.1664934158 11.229639053 -1.8635601997 3.8049526215 10.435998917 -2.7631554604 2.9436159134 
11.920095444 -1.8635601997 2.1664934158 12.816919327 -1.0265102386 3.7207384109 11.229639053 -1.8635601997 3.8049526215 
11.229639053 -1.8635601997 3.8049526215 12.816919327 -1.0265102386 3.7207384109 11.229639053 -1.1491689682 4.4978609085 
1.7059555054 -0.30112600327 -1.9033288956 1.7059555054 -1.8635601997 -1.5400657654 0.12867116928 -0.30112600327 -0.16487407684 
0.692070961 -1.0823431015 0.61224842072 0.49885797501 0.48009109497 0.61224842072 0.12867116928 -0.30112600327 -0.16487407684 
5.6741566658 -0.30112600327 3.6272420883 1.7059555054 -0.30112600327 1.8132896423 2.4995956421 -1.8635601997 1.7875576019 
4.8805165291 0.48009109497 -2.6256375313 4.8805165291 -1.0823431015 -2.2689166069 1.7059555054 -0.30112600327 -1.9033288956 
10.651885986 -0.30112600327 -0.9419965744 8.8487186432 -1.8635601997 -1.1079301834 8.8487186432 -0.30112600327 -1.9227132797 
8.0550785065 -0.30112600327 4.4786901474 9.6423587799 -1.0823431015 4.561170578 11.229639053 0.48009109497 5.4060316086 
12.816919327 -0.56584882736 4.4978609085 12.816919327 0.48009109497 5.269949913 11.229639053 -1.1491689682 4.4978609085 
11.229639053 -1.1491689682 4.4978609085 12.816919327 0.48009109497 5.269949913 9.6423587799 -1.0823431015 4.561170578 
11.062440872 -1.8635601997 0.61224842072 13.007865906 0.48009109497 0.61224842072 13.466920853 -0.30112600327 2.1664934158 
11.062440872 -1.8635601997 0.61224842072 13.466920853 -0.30112600327 2.1664934158 11.920095444 -1.8635601997 2.1664934158 
11.920095444 -1.8635601997 2.1664934158 13.466920853 -0.30112600327 2.1664934158 13.610559464 -0.3749871254 2.9436159134 
12.816919327 -1.0265102386 3.7207384109 12.816919327 -0.56584882736 4.4978609085 11.229639053 -1.1491689682 4.4978609085 
13.610559464 -0.3749871254 2.9436159134 12.816919327 -1.0265102386 3.7207384109 11.920095444 -1.8635601997 2.1664934158 
13.610559464 -0.3749871254 2.9436159134 13.610559464 -0.32372951508 3.7207384109 12.816919327 -1.0265102386 3.7207384109 
13.610559464 0.12257480621 4.4978609085 12.816919327 -0.56584882736 4.4978609085 13.610559464 -0.32372951508 3.7207384109 
13.610559464 -0.32372951508 3.7207384109 12.816919327 -0.56584882736 4.4978609085 12.816919327 -1.0265102386 3.7207384109 
0.18285179138 0.48009109497 -0.16487407684 1.7059555054 -0.30112600327 -1.9033288956 0.12867116928 -0.30112600327 -0.16487407684 
0.12867116928 -0.30112600327 -0.16487407684 0.49885797501 0.48009109497 0.61224842072 0.18285179138 0.48009109497 -0.16487407684 
0.692070961 -1.0823431015 0.61224842072 1.2520875931 1.2613077164 1.3893709183 0.49885797501 0.48009109497 0.61224842072 
0.18285179138 0.48009109497 -0.16487407684 1.7059555054 1.2613077164 -1.8395967484 1.7059555054 -0.30112600327 -1.9033288956 
0.692070961 -1.0823431015 0.61224842072 1.7059555054 -0.30112600327 1.8132896423 1.2520875931 1.2613077164 1.3893709183 
5.6741566658 2.8237419128 -2.9403891563 1.7059555054 -0.30112600327 -1.9033288956 1.7059555054 1.2613077164 -1.8395967484 
[...]
CELL_DATA 900
FIELD FieldData 1
GroupIds 1 900 float
0 0 0 0 0 0 0 0 0 
0 0 0 0 0 0 0 0 0 
0 0 0 0 0 0 0 0 0 
0 0 0 0 0 0 0 0 0 
0 0 0 0 0 0 0 0 0 
0 0 0 0 0 0 0 0 0 
0 0 0 0 0 0 0 0 0 
0 0 0 0 0 0 0 0 0 
0 0 0 0 0 0 0 0 0 
0 0 0 0 0 0 0 0 0 
0 0 0 0 0 0 0 0 0 
0 0 0 0 0 0 0 0 0 
0 0 0 0 0 0 0 0 0 
0 0 0 0 0 0 0 0 0 
0 0 0 0 0 0 0 0 0 
0 0 0 0 0 0 0 0 0 
0 0 0 0 0 0 0 0 0 
0 0 0 0 0 0 0 0 0 
0 0 0 0 0 0 0 0 0 
0 0 0 0 0 0 0 0 0 
0 0 0 0 0 0 0 0 0 
0 0 0 0 0 0 0 0 0 
0 0 0 0 0 0 0 0 0 
0 0 0 0 0 0 0 0 0 
0 0 0 0 0 0 0 0 0 
0 0 0 0 0 0 0 0 0 
0 0 0 0 0 0 0 0 0 
0 0 0 0 0 0 0 0 0 
0 0 0 0 0 0 0 0 0 
0 0 0 0 0 0 0 0 0 
0 0 0 0 0 0 0 0 0 
0 0 0 0 0 0 0 0 0 
0 0 0 0 0 0 0 0 0 
0 0 0 0 0 0 0 0 0 
0 0 0 0 0 0 0 0 0 
0 0 0 0 0 0 0 0 0 
0 0 0 0 0 0 0 0 0 
0 0 0 0 0 0 0 0 0 
0 0 0 0 0 0 0 0 0 
0 0 0 0 0 0 0 0 0 
0 0 0 0 0 0 0 0 0 
0 0 0 0 0 0 0 0 0 
0 0 0 0 0 0 0 0 0 
0 0 0 0 0 0 0 0 0 
0 0 0 0 0 0 0 0 0 
0 0 0 0 0 0 0 0 0 
0 0 0 0 0 0 0 0 0 
0 0 0 0 0 0 0 0 0 
0 0 0 0 0 0 0 0 0 
0 0 0 0 0 0 0 0 0 
0 0 0 0 0 0 0 0 0 
0 0 0 0 0 0 0 0 0 
0 0 0 0 0 0 0 0 0 
0 0 0 0 0 0 0 0 0 
0 0 0 0 0 0 0 0 0 
0 0 0 0 0 0 0 0 0 
0 0 0 0 0 0 0 0 0 
0 0 0 0 0 0 0 0 0 
0 0 0 0 0 0 0 0 0 
0 0 0 0 0 0 0 0 0 
0 0 0 0 0 0 0 0 0 
0 0 0 0 0 0 0 0 0 
0 0 0 0 0 0 0 0 0 
0 0 0 0 0 0 0 0 0 
0 0 0 0 0 0 0 0 0 
0 0 0 0 0 0 0 0 0 
0 0 0 0 0 0 0 0 0 
0 0 0 0 0 0 0 0 0 
0 0 0 0 0 0 0 0 0 
0 0 0 0 0 0 0 0 0 
0 0 0 0 0 0 0 0 0 
0 0 0 0 0 0 0 0 0 
0 0 0 0 0 0 0 0 0 
0 0 0 0 0 0 0 0 0 
0 0 0 0 0 0 0 0 0 
0 0 0 0 0 0 0 0 0 
0 0 0 0 0 0 0 0 0 
0 0 0 0 0 0 0 0 0 
0 0 0 0 0 0 0 0 0 
0 0 0 0 0 0 0 0 0 
0 0 0 0 0 0 0 0 0 
0 0 0 0 0 0 0 0 0 
0 0 0 0 0 0 0 0 0 
0 0 0 0 0 0 0 0 0 
0 0 0 0 0 0 0 0 0 
0 0 0 0 0 0 0 0 0 
0 0 0 0 0 0 0 0 0 
0 0 0 0 0 0 0 0 0 
0 0 0 0 0 0 0 0 0 
0 0 0 0 0 0 0 0 0 
0 0 0 0 0 0 0 0 0 
0 0 0 0 0 0 0 0 0 
0 0 0 0 0 0 0 0 0 
0 0 0 0 0 0 0 0 0 
0 0 0 0 0 0 0 0 0 
0 0 0 0 0 0 0 0 0 
0 0 0 0 0 0 0 0 0 
0 0 0 0 0 0 0 0 0 
0 0 0 0 0 0 0 0 0 
0 0 0 0 0 0 0 0 0 

POINT_DATA 2700
NORMALS Normals float
-0.093918 -0.994979 -0.0345932 -0.093918 -0.994979 -0.0345932 -0.093918 -0.994979 -0.0345932 
0.0828293 -0.995962 -0.0346273 0.0828293 -0.995962 -0.0346273 0.0828293 -0.995962 -0.0346273 
0.0337398 -0.99943 -0.00112959 0.0337398 -0.99943 -0.00112959 0.0337398 -0.99943 -0.00112959 
-0.24206 -0.96763 0.0714077 -0.24206 -0.96763 0.0714077 -0.24206 -0.96763 0.0714077 
-0.0751549 -0.7962 -0.600348 -0.0751549 -0.7962 -0.600348 -0.0751549 -0.7962 -0.600348 
-0.226617 -0.968371 0.104416 -0.226617 -0.968371 0.104416 -0.226617 -0.968371 0.104416 
-0.300801 -0.714742 0.631397 -0.300801 -0.714742 0.631397 -0.300801 -0.714742 0.631397 
-0.238235 -0.770887 0.590743 -0.238235 -0.770887 0.590743 -0.238235 -0.770887 0.590743 
0.155224 -0.78878 -0.594753 0.155224 -0.78878 -0.594753 0.155224 -0.78878 -0.594753 
0.19498 -0.836699 -0.511779 0.19498 -0.836699 -0.511779 0.19498 -0.836699 -0.511779 
0.29047 -0.947887 0.130911 0.29047 -0.947887 0.130911 0.29047 -0.947887 0.130911 
0.309461 -0.928665 0.204486 0.309461 -0.928665 0.204486 0.309461 -0.928665 0.204486 
0.156435 -0.783969 0.600767 0.156435 -0.783969 0.600767 0.156435 -0.783969 0.600767 
-0.443821 -0.850076 0.283537 -0.443821 -0.850076 0.283537 -0.443821 -0.850076 0.283537 
-0.344756 -0.660331 0.667163 -0.344756 -0.660331 0.667163 -0.344756 -0.660331 0.667163 
-0.296083 -0.661095 -0.689412 -0.296083 -0.661095 -0.689412 -0.296083 -0.661095 -0.689412 
-0.191459 -0.765353 -0.614474 -0.191459 -0.765353 -0.614474 -0.191459 -0.765353 -0.614474 
-0.113341 -0.7521 -0.64923 -0.113341 -0.7521 -0.64923 -0.113341 -0.7521 -0.64923 
-0.339392 -0.614244 0.712403 -0.339392 -0.614244 0.712403 -0.339392 -0.614244 0.712403 
-0.304505 -0.671531 0.675517 -0.304505 -0.671531 0.675517 -0.304505 -0.671531 0.675517 
-0.155861 -0.484023 0.861063 -0.155861 -0.484023 0.861063 -0.155861 -0.484023 0.861063 
0.146281 -0.738648 0.658028 0.146281 -0.738648 0.658028 0.146281 -0.738648 0.658028 
0.447201 -0.661834 -0.601654 0.447201 -0.661834 -0.601654 0.447201 -0.661834 -0.601654 
0.460925 -0.660072 -0.593172 0.460925 -0.660072 -0.593172 0.460925 -0.660072 -0.593172 
0.503139 -0.720524 -0.477176 0.503139 -0.720524 -0.477176 0.503139 -0.720524 -0.477176 
-0.795967 -0.418973 -0.436919 -0.795967 -0.418973 -0.436919 -0.795967 -0.418973 -0.436919 
-0.871903 -0.458944 0.170752 -0.871903 -0.458944 0.170752 -0.871903 -0.458944 0.170752 
-0.877551 -0.454849 0.151712 -0.877551 -0.454849 0.151712 -0.877551 -0.454849 0.151712 
-0.569761 -0.35606 0.740671 -0.569761 -0.35606 0.740671 -0.569761 -0.35606 0.740671 
-0.165581 -0.223332 -0.960576 -0.165581 -0.223332 -0.960576 -0.165581 -0.223332 -0.960576 
-0.129237 -0.342902 -0.930439 -0.129237 -0.342902 -0.930439 -0.129237 -0.342902 -0.930439 
-0.379114 -0.385926 0.841032 -0.379114 -0.385926 0.841032 -0.379114 -0.385926 0.841032 
-0.3733 -0.401942 0.836116 -0.3733 -0.401942 0.836116 -0.3733 -0.401942 0.836116 
-0.0545917 -0.408818 -0.910982 -0.0545917 -0.408818 -0.910982 -0.0545917 -0.408818 -0.910982 
-0.000696106 -0.532369 -0.846512 -0.000696106 -0.532369 -0.846512 -0.000696106 -0.532369 -0.846512 
0.215092 -0.519909 -0.826699 0.215092 -0.519909 -0.826699 0.215092 -0.519909 -0.826699 
-0.24881 -0.403944 0.880297 -0.24881 -0.403944 0.880297 -0.24881 -0.403944 0.880297 
0.21747 -0.508331 -0.833251 0.21747 -0.508331 -0.833251 0.21747 -0.508331 -0.833251 
0.22597 -0.524609 -0.820807 0.22597 -0.524609 -0.820807 0.22597 -0.524609 -0.820807 
-0.125782 -0.486119 0.864793 -0.125782 -0.486119 0.864793 -0.125782 -0.486119 0.864793 
0.520491 -0.529549 -0.669827 0.520491 -0.529549 -0.669827 0.520491 -0.529549 -0.669827 
0.133895 -0.744436 0.654131 0.133895 -0.744436 0.654131 0.133895 -0.744436 0.654131 
0.596429 -0.732089 -0.329118 0.596429 -0.732089 -0.329118 0.596429 -0.732089 -0.329118 
0.538011 -0.841229 0.0536516 0.538011 -0.841229 0.0536516 0.538011 -0.841229 0.0536516 
-0.609948 -0.32175 0.724183 -0.609948 -0.32175 0.724183 -0.609948 -0.32175 0.724183 
-0.609389 -0.315857 0.727241 -0.609389 -0.315857 0.727241 -0.609389 -0.315857 0.727241 
-0.395804 -0.239633 0.886519 -0.395804 -0.239633 0.886519 -0.395804 -0.239633 0.886519 
0.0902222 -0.279161 -0.955996 0.0902222 -0.279161 -0.955996 0.0902222 -0.279161 -0.955996 
-0.329406 -0.207412 0.921125 -0.329406 -0.207412 0.921125 -0.329406 -0.207412 0.921125 
-0.261227 -0.278501 0.924228 -0.261227 -0.278501 0.924228 -0.261227 -0.278501 0.924228 
-0.201324 -0.310984 0.928847 -0.201324 -0.310984 0.928847 -0.201324 -0.310984 0.928847 
0.283341 -0.443439 -0.850341 0.283341 -0.443439 -0.850341 0.283341 -0.443439 -0.850341 
-0.12631 -0.479462 0.868425 -0.12631 -0.479462 0.868425 -0.12631 -0.479462 0.868425 
0.014567 -0.483282 0.875344 0.014567 -0.483282 0.875344 0.014567 -0.483282 0.875344 
0.145371 -0.688836 0.710192 0.145371 -0.688836 0.710192 0.145371 -0.688836 0.710192 
0.594374 -0.764188 0.250473 0.594374 -0.764188 0.250473 0.594374 -0.764188 0.250473 
0.465521 -0.863021 0.196173 0.465521 -0.863021 0.196173 0.465521 -0.863021 0.196173 
0.375574 -0.645262 0.665268 0.375574 -0.645262 0.665268 0.375574 -0.645262 0.665268 
-0.731728 -0.154353 -0.66389 -0.731728 -0.154353 -0.66389 -0.731728 -0.154353 -0.66389 
-0.852463 -0.105417 0.512048 -0.852463 -0.105417 0.512048 -0.852463 -0.105417 0.512048 
-0.405503 -0.220585 0.887079 -0.405503 -0.220585 0.887079 -0.405503 -0.220585 0.887079 
-0.164764 -0.219541 -0.961589 -0.164764 -0.219541 -0.961589 -0.164764 -0.219541 -0.961589 
0.434378 -0.416487 -0.798658 0.434378 -0.416487 -0.798658 0.434378 -0.416487 -0.798658 
-0.197684 -0.303236 0.932185 -0.197684 -0.303236 0.932185 -0.197684 -0.303236 0.932185 
0.213235 -0.580236 0.786039 0.213235 -0.580236 0.786039 0.213235 -0.580236 0.786039 
0.0171758 -0.44179 0.896954 0.0171758 -0.44179 0.896954 0.0171758 -0.44179 0.896954 
0.674689 -0.560048 -0.480772 0.674689 -0.560048 -0.480772 0.674689 -0.560048 -0.480772 
0.661596 -0.654987 -0.365078 0.661596 -0.654987 -0.365078 0.661596 -0.654987 -0.365078 
0.697085 -0.690121 -0.194437 0.697085 -0.690121 -0.194437 0.697085 -0.690121 -0.194437 
0.301425 -0.820212 0.486204 0.301425 -0.820212 0.486204 0.301425 -0.820212 0.486204 
0.652378 -0.757244 0.0313868 0.652378 -0.757244 0.0313868 0.652378 -0.757244 0.0313868 
0.662145 -0.747751 0.0493203 0.662145 -0.747751 0.0493203 0.662145 -0.747751 0.0493203 
0.601126 -0.693 0.397993 0.601126 -0.693 0.397993 0.601126 -0.693 0.397993 
0.60596 -0.684302 0.405639 0.60596 -0.684302 0.405639 0.60596 -0.684302 0.405639 
-0.739628 0.0512963 -0.671058 -0.739628 0.0512963 -0.671058 -0.739628 0.0512963 -0.671058 
-0.924436 0.0641134 0.375909 -0.924436 0.0641134 0.375909 -0.924436 0.0641134 0.375909 
-0.672493 -0.0831615 0.735417 -0.672493 -0.0831615 0.735417 -0.672493 -0.0831615 0.735417 
-0.745801 0.0271507 -0.665616 -0.745801 0.0271507 -0.665616 -0.745801 0.0271507 -0.665616 
-0.750827 -0.0392158 0.659334 -0.750827 -0.0392158 0.659334 -0.750827 -0.0392158 0.659334 
-0.281374 0.0391098 -0.958801 -0.281374 0.0391098 -0.958801 -0.281374 0.0391098 -0.958801 
-0.414628 0.0732165 0.907041 -0.414628 0.0732165 0.907041 -0.414628 0.0732165 0.907041 
-0.207155 -0.0609812 -0.976406 -0.207155 -0.0609812 -0.976406 -0.207155 -0.0609812 -0.976406 
0.0916205 -0.221647 -0.970813 0.0916205 -0.221647 -0.970813 0.0916205 -0.221647 -0.970813 
0.063469 -0.261665 -0.96307 0.063469 -0.261665 -0.96307 0.063469 -0.261665 -0.96307 
0.221437 -0.305902 -0.925953 0.221437 -0.305902 -0.925953 0.221437 -0.305902 -0.925953 
0.457532 -0.288099 -0.841228 0.457532 -0.288099 -0.841228 0.457532 -0.288099 -0.841228 
0.592287 -0.42775 -0.682808 0.592287 -0.42775 -0.682808 0.592287 -0.42775 -0.682808 
0.587628 -0.48778 -0.645573 0.587628 -0.48778 -0.645573 0.587628 -0.48778 -0.645573 
0.072418 -0.530325 0.844696 0.072418 -0.530325 0.844696 0.072418 -0.530325 0.844696 
0.456422 -0.52618 0.717505 0.456422 -0.52618 0.717505 0.456422 -0.52618 0.717505 
0.461595 -0.526839 0.713702 0.461595 -0.526839 0.713702 0.461595 -0.526839 0.713702 
-0.465465 0.103283 0.879019 -0.465465 0.103283 0.879019 -0.465465 0.103283 0.879019 
-0.335378 -0.0894724 0.937825 -0.335378 -0.0894724 0.937825 -0.335378 -0.0894724 0.937825 
-0.222405 -0.222898 0.949133 -0.222405 -0.222898 0.949133 -0.222405 -0.222898 0.949133 
-0.122282 -0.175256 0.976899 -0.122282 -0.175256 0.976899 -0.122282 -0.175256 0.976899 
0.746164 -0.479804 -0.46155 0.746164 -0.479804 -0.46155 0.746164 -0.479804 -0.46155 
0.804531 -0.558578 -0.201794 0.804531 -0.558578 -0.201794 0.804531 -0.558578 -0.201794 
0.800663 -0.472687 -0.368112 0.800663 -0.472687 -0.368112 0.800663 -0.472687 -0.368112 
0.834393 -0.549975 0.0362754 0.834393 -0.549975 0.0362754 0.834393 -0.549975 0.0362754 
0.81503 -0.565868 0.124576 0.81503 -0.565868 0.124576 0.81503 -0.565868 0.124576 
0.796124 -0.524751 0.301367 0.796124 -0.524751 0.301367 0.796124 -0.524751 0.301367 
0.782569 -0.470878 0.40726 0.782569 -0.470878 0.40726 0.782569 -0.470878 0.40726 
-0.768492 0.185531 -0.612372 -0.768492 0.185531 -0.612372 -0.768492 0.185531 -0.612372 
-0.809464 0.253715 0.529525 -0.809464 0.253715 0.529525 -0.809464 0.253715 0.529525 
-0.429286 0.398101 0.810697 -0.429286 0.398101 0.810697 -0.429286 0.398101 0.810697 
-0.274038 0.0185481 -0.96154 -0.274038 0.0185481 -0.96154 -0.274038 0.0185481 -0.96154 
-0.451824 -0.0176091 0.891933 -0.451824 -0.0176091 0.891933 -0.451824 -0.0176091 0.891933 
0.0473453 -0.196208 -0.979419 0.0473453 -0.196208 -0.979419 0.0473453 -0.196208 -0.979419 
-0.340963 -0.0958553 0.935177 -0.340963 -0.0958553 0.935177 -0.340963 -0.0958553 0.935177 
0.466069 -0.317071 -0.825982 0.466069 -0.317071 -0.825982 0.466069 -0.317071 -0.825982 
0.355324 -0.228995 -0.906259 0.355324 -0.228995 -0.906259 0.355324 -0.228995 -0.906259 
0.0821459 -0.274178 0.958164 0.0821459 -0.274178 0.958164 0.0821459 -0.274178 0.958164 
-0.018174 -0.210621 0.977399 -0.018174 -0.210621 0.977399 -0.018174 -0.210621 0.977399 
0.230892 -0.267674 0.935435 0.230892 -0.267674 0.935435 0.230892 -0.267674 0.935435 
0.586759 -0.47887 0.652991 0.586759 -0.47887 0.652991 0.586759 -0.47887 0.652991 
-0.854508 0.386106 0.347474 -0.854508 0.386106 0.347474 -0.854508 0.386106 0.347474 
-0.90149 0.407335 -0.146267 -0.90149 0.407335 -0.146267 -0.90149 0.407335 -0.146267 
-0.944608 0.296074 -0.141617 -0.944608 0.296074 -0.141617 -0.944608 0.296074 -0.141617 
-0.548788 0.280057 0.787655 -0.548788 0.280057 0.787655 -0.548788 0.280057 0.787655 
-0.0247827 -0.124816 -0.99187 -0.0247827 -0.124816 -0.99187 -0.0247827 -0.124816 -0.99187 
-0.475141 0.165436 0.864218 -0.475141 0.165436 0.864218 -0.475141 0.165436 0.864218 
-0.445446 0.168332 0.879342 -0.445446 0.168332 0.879342 -0.445446 0.168332 0.879342 
0.33213 -0.170177 -0.927755 0.33213 -0.170177 -0.927755 0.33213 -0.170177 -0.927755 
0.343623 -0.205436 0.916362 0.343623 -0.205436 0.916362 0.343623 -0.205436 0.916362 
0.314376 -0.201308 0.927709 0.314376 -0.201308 0.927709 0.314376 -0.201308 0.927709 
0.873798 -0.36219 -0.324494 0.873798 -0.36219 -0.324494 0.873798 -0.36219 -0.324494 
0.823278 -0.372354 0.428445 0.823278 -0.372354 0.428445 0.823278 -0.372354 0.428445 
-0.363715 0.0276858 0.931099 -0.363715 0.0276858 0.931099 -0.363715 0.0276858 0.931099 
0.23609 -0.0975028 -0.966827 0.23609 -0.0975028 -0.966827 0.23609 -0.0975028 -0.966827 
0.525753 -0.273093 -0.805608 0.525753 -0.273093 -0.805608 0.525753 -0.273093 -0.805608 
0.654771 -0.337658 -0.676212 0.654771 -0.337658 -0.676212 0.654771 -0.337658 -0.676212 
0.685528 -0.328587 -0.649678 0.685528 -0.328587 -0.649678 0.685528 -0.328587 -0.649678 
0.927592 -0.331384 -0.172502 0.927592 -0.331384 -0.172502 0.927592 -0.331384 -0.172502 
0.919678 -0.328557 0.215039 0.919678 -0.328557 0.215039 0.919678 -0.328557 0.215039 
-0.735146 0.61776 0.279166 -0.735146 0.61776 0.279166 -0.735146 0.61776 0.279166 
-0.584815 0.491434 0.645355 -0.584815 0.491434 0.645355 -0.584815 0.491434 0.645355 
-0.579213 0.308225 -0.754658 -0.579213 0.308225 -0.754658 -0.579213 0.308225 -0.754658 
-0.44902 0.222287 -0.86543 -0.44902 0.222287 -0.86543 -0.44902 0.222287 -0.86543 
-0.511439 0.282813 0.811447 -0.511439 0.282813 0.811447 -0.511439 0.282813 0.811447 
-0.0249773 -0.00753956 -0.99966 -0.0249773 -0.00753956 -0.99966 -0.0249773 -0.00753956 -0.99966 
0.318366 -0.205974 -0.92532 0.318366 -0.205974 -0.92532 0.318366 -0.205974 -0.92532 
-0.198482 -0.0217185 0.979864 -0.198482 -0.0217185 0.979864 -0.198482 -0.0217185 0.979864 
-0.291382 0.0284317 0.956184 -0.291382 0.0284317 0.956184 -0.291382 0.0284317 0.956184 
-0.0185865 -0.0221556 0.999582 -0.0185865 -0.0221556 0.999582 -0.0185865 -0.0221556 0.999582 
-0.0383963 -0.0288522 0.998846 -0.0383963 -0.0288522 0.998846 -0.0383963 -0.0288522 0.998846 
0.205826 -0.110443 0.972336 0.205826 -0.110443 0.972336 0.205826 -0.110443 0.972336 
0.691311 -0.331359 -0.642099 0.691311 -0.331359 -0.642099 0.691311 -0.331359 -0.642099 
0.932098 -0.346473 -0.10559 0.932098 -0.346473 -0.10559 0.932098 -0.346473 -0.10559 
0.723175 -0.247489 0.6448 0.723175 -0.247489 0.6448 0.723175 -0.247489 0.6448 
0.504663 -0.183074 0.843682 0.504663 -0.183074 0.843682 0.504663 -0.183074 0.843682 
-0.7338 0.639167 0.230224 -0.7338 0.639167 0.230224 -0.7338 0.639167 0.230224 
-0.659639 0.491005 -0.569025 -0.659639 0.491005 -0.569025 -0.659639 0.491005 -0.569025 
-0.690172 0.601165 -0.402819 -0.690172 0.601165 -0.402819 -0.690172 0.601165 -0.402819 
-0.800749 0.596041 -0.0594554 -0.800749 0.596041 -0.0594554 -0.800749 0.596041 -0.0594554 
-0.54901 0.493372 0.674664 -0.54901 0.493372 0.674664 -0.54901 0.493372 0.674664 
-0.508116 0.409385 0.757774 -0.508116 0.409385 0.757774 -0.508116 0.409385 0.757774 
-0.147901 0.086503 -0.985212 -0.147901 0.086503 -0.985212 -0.147901 0.086503 -0.985212 
-0.472596 0.13531 0.87083 -0.472596 0.13531 0.87083 -0.472596 0.13531 0.87083 
0.0573162 -0.0284164 -0.997952 0.0573162 -0.0284164 -0.997952 0.0573162 -0.0284164 -0.997952 
0.845634 -0.32944 -0.419968 0.845634 -0.32944 -0.419968 0.845634 -0.32944 -0.419968 
-0.559973 0.732241 0.387627 -0.559973 0.732241 0.387627 -0.559973 0.732241 0.387627 
-0.506361 0.662136 0.552426 -0.506361 0.662136 0.552426 -0.506361 0.662136 0.552426 
-0.379684 0.300256 -0.875035 -0.379684 0.300256 -0.875035 -0.379684 0.300256 -0.875035 
-0.601528 0.329405 0.727775 -0.601528 0.329405 0.727775 -0.601528 0.329405 0.727775 
0.455668 -0.188871 -0.869882 0.455668 -0.188871 -0.869882 0.455668 -0.188871 -0.869882 
0.507864 -0.229677 -0.830254 0.507864 -0.229677 -0.830254 0.507864 -0.229677 -0.830254 
0.206064 0.0995593 0.973461 0.206064 0.0995593 0.973461 0.206064 0.0995593 0.973461 
0.91055 -0.156434 0.382657 0.91055 -0.156434 0.382657 0.91055 -0.156434 0.382657 
0.83087 -0.0931449 0.548616 0.83087 -0.0931449 0.548616 0.83087 -0.0931449 0.548616 
-0.539038 0.778251 0.322125 -0.539038 0.778251 0.322125 -0.539038 0.778251 0.322125 
-0.564787 0.398061 -0.722885 -0.564787 0.398061 -0.722885 -0.564787 0.398061 -0.722885 
-0.473797 0.638565 -0.606425 -0.473797 0.638565 -0.606425 -0.473797 0.638565 -0.606425 
-0.636896 0.727679 -0.254649 -0.636896 0.727679 -0.254649 -0.636896 0.727679 -0.254649 
-0.651742 0.511642 0.559871 -0.651742 0.511642 0.559871 -0.651742 0.511642 0.559871 
-0.211514 0.223058 -0.951581 -0.211514 0.223058 -0.951581 -0.211514 0.223058 -0.951581 
-0.55017 0.291603 0.782483 -0.55017 0.291603 0.782483 -0.55017 0.291603 0.782483 
0.141655 0.0581097 -0.988209 0.141655 0.0581097 -0.988209 0.141655 0.0581097 -0.988209 
-0.350871 0.214666 0.911487 -0.350871 0.214666 0.911487 -0.350871 0.214666 0.911487 
-0.287218 0.170774 0.942519 -0.287218 0.170774 0.942519 -0.287218 0.170774 0.942519 
0.448621 -0.152618 -0.880595 0.448621 -0.152618 -0.880595 0.448621 -0.152618 -0.880595 
-0.0382132 0.101669 0.994084 -0.0382132 0.101669 0.994084 -0.0382132 0.101669 0.994084 
-0.113522 0.177134 0.977618 -0.113522 0.177134 0.977618 -0.113522 0.177134 0.977618 
0.512944 0.0391981 0.857527 0.512944 0.0391981 0.857527 0.512944 0.0391981 0.857527 
0.558329 0.0419362 0.828559 0.558329 0.0419362 0.828559 0.558329 0.0419362 0.828559 
0.985483 -0.169308 -0.0126138 0.985483 -0.169308 -0.0126138 0.985483 -0.169308 -0.0126138 
-0.657822 0.751588 -0.0488431 -0.657822 0.751588 -0.0488431 -0.657822 0.751588 -0.0488431 
-0.208231 0.281117 -0.93681 -0.208231 0.281117 -0.93681 -0.208231 0.281117 -0.93681 
-0.631972 0.512263 0.581548 -0.631972 0.512263 0.581548 -0.631972 0.512263 0.581548 
-0.673215 0.416182 0.611207 -0.673215 0.416182 0.611207 -0.673215 0.416182 0.611207 
-0.0749488 0.286608 -0.955112 -0.0749488 0.286608 -0.955112 -0.0749488 0.286608 -0.955112 
0.126127 0.0895743 -0.987962 0.126127 0.0895743 -0.987962 0.126127 0.0895743 -0.987962 
0.258116 -0.0651702 -0.963913 0.258116 -0.0651702 -0.963913 0.258116 -0.0651702 -0.963913 
0.669601 -0.254677 -0.697692 0.669601 -0.254677 -0.697692 0.669601 -0.254677 -0.697692 
0.255301 0.124646 0.958793 0.255301 0.124646 0.958793 0.255301 0.124646 0.958793 
0.82666 -0.0858581 0.556113 0.82666 -0.0858581 0.556113 0.82666 -0.0858581 0.556113 
0.962299 -0.259291 0.0821449 0.962299 -0.259291 0.0821449 0.962299 -0.259291 0.0821449 
-0.233005 0.445769 -0.864291 -0.233005 0.445769 -0.864291 -0.233005 0.445769 -0.864291 
-0.44793 0.856951 -0.254939 -0.44793 0.856951 -0.254939 -0.44793 0.856951 -0.254939 
-0.647882 0.727054 0.227248 -0.647882 0.727054 0.227248 -0.647882 0.727054 0.227248 
-0.380636 0.513868 -0.768802 -0.380636 0.513868 -0.768802 -0.380636 0.513868 -0.768802 
-0.496853 0.749354 -0.437728 -0.496853 0.749354 -0.437728 -0.496853 0.749354 -0.437728 
-0.37522 0.332083 0.865408 -0.37522 0.332083 0.865408 -0.37522 0.332083 0.865408 
-0.0733352 0.253352 0.964591 -0.0733352 0.253352 0.964591 -0.0733352 0.253352 0.964591 
0.678479 -0.242835 -0.693323 0.678479 -0.242835 -0.693323 0.678479 -0.242835 -0.693323 
0.861833 -0.27212 -0.428013 0.861833 -0.27212 -0.428013 0.861833 -0.27212 -0.428013 
0.966417 -0.199647 -0.161801 0.966417 -0.199647 -0.161801 0.966417 -0.199647 -0.161801 