# vtk DataFile Version 4.2
3D Slicer output. SPACE=LPS
ASCII
DATASET POLYDATA
POINTS 2556 double
4.7663836479 -4.1649694443 1.0835762024 7.9292836189 -3.8635454178 0.2690372467 7.9292836189 -4.2951850891 1.0835762024 
4.7663836479 -4.1649694443 1.0835762024 7.9292836189 -4.2951850891 1.0835762024 6.3478341103 -4.2608675957 1.8981161118 
2.3942093849 -3.489376545 0.2690372467 2.3942093849 -3.2979211807 -0.54550266266 4.7663836479 -4.1384506226 0.2690372467 
4.4888892174 -3.5962333679 1.8981161118 2.3942093849 -3.489376545 0.2690372467 4.7663836479 -4.1649694443 1.0835762024 
4.7663836479 -4.1649694443 1.0835762024 2.3942093849 -3.489376545 0.2690372467 4.7663836479 -4.1384506226 0.2690372467 
4.7663836479 -4.1384506226 0.2690372467 5.5571093559 -2.8055419922 -1.226006031 7.9292836189 -3.8635454178 0.2690372467 
4.7663836479 -4.1649694443 1.0835762024 6.3478341103 -4.2608675957 1.8981161118 4.4888892174 -3.5962333679 1.8981161118 
4.7663836479 -4.1649694443 1.0835762024 4.7663836479 -4.1384506226 0.2690372467 7.9292836189 -3.8635454178 0.2690372467 
7.1385588646 -3.5962333679 3.1426286697 4.4888892174 -3.5962333679 1.8981161118 6.3478341103 -4.2608675957 1.8981161118 
6.3478341103 -4.2608675957 1.8981161118 7.9292836189 -4.0787854195 2.7126560211 7.1385588646 -3.5962333679 3.1426286697 
7.9292836189 -4.2951850891 1.0835762024 7.9292836189 -4.3782191277 1.8981161118 6.3478341103 -4.2608675957 1.8981161118 
7.9292836189 -4.3782191277 1.8981161118 7.9292836189 -4.0787854195 2.7126560211 6.3478341103 -4.2608675957 1.8981161118 
7.9292836189 -3.8635454178 0.2690372467 11.070518494 -2.8055419922 1.8981161118 7.9292836189 -4.2951850891 1.0835762024 
7.1385588646 -3.5962333679 3.1426286697 7.9292836189 -4.0787854195 2.7126560211 8.7200088501 -3.4127020836 3.5271949768 
11.070518494 -2.8055419922 1.8981161118 7.9292836189 -4.3782191277 1.8981161118 7.9292836189 -4.2951850891 1.0835762024 
7.9292836189 -4.3782191277 1.8981161118 10.301458359 -3.3769979477 2.7126560211 7.9292836189 -4.0787854195 2.7126560211 
7.9292836189 -4.0787854195 2.7126560211 10.301458359 -3.3769979477 2.7126560211 10.301458359 -3.0963625908 3.5271949768 
8.7200088501 -3.4127020836 3.5271949768 7.9292836189 -4.0787854195 2.7126560211 10.301458359 -3.0963625908 3.5271949768 
1.6034846306 -2.8156561852 -0.54550266266 2.3942093849 -3.489376545 0.2690372467 0.66238069534 -1.2241601944 0.2690372467 
2.3942093849 -3.489376545 0.2690372467 1.6034846306 -2.0148510933 1.2472667694 0.66238069534 -1.2241601944 0.2690372467 
2.3942093849 -3.2979211807 -0.54550266266 2.3942093849 -3.489376545 0.2690372467 1.6034846306 -2.8156561852 -0.54550266266 
4.4888892174 -3.5962333679 1.8981161118 1.6034846306 -2.0148510933 1.2472667694 2.3942093849 -3.489376545 0.2690372467 
2.3942093849 -3.2979211807 -0.54550266266 5.5571093559 -2.8055419922 -1.226006031 4.7663836479 -4.1384506226 0.2690372467 
7.1385588646 -3.5962333679 3.1426286697 4.7663836479 -2.8055419922 2.65513134 4.4888892174 -3.5962333679 1.8981161118 
7.1385588646 -2.8055419922 3.6971387863 4.7663836479 -2.8055419922 2.65513134 7.1385588646 -3.5962333679 3.1426286697 
7.9292836189 -2.8055419922 -0.73159265518 7.9292836189 -3.8635454178 0.2690372467 5.5571093559 -2.8055419922 -1.226006031 
7.1385588646 -2.8055419922 3.6971387863 7.1385588646 -3.5962333679 3.1426286697 8.7200088501 -3.4127020836 3.5271949768 
11.070518494 -2.8055419922 1.8981161118 10.301458359 -3.3769979477 2.7126560211 7.9292836189 -4.3782191277 1.8981161118 
8.7200088501 -3.4127020836 3.5271949768 10.301458359 -3.0963625908 3.5271949768 10.301458359 -2.4215755463 4.3417348862 
1.6034846306 -2.8156561852 -0.54550266266 0.66238069534 -1.2241601944 0.2690372467 0.82891702652 -1.2241601944 -0.54550266266 
2.3942093849 -3.2979211807 -0.54550266266 1.6034846306 -2.8156561852 -0.54550266266 2.3942093849 -1.2241601944 -1.7652239799 
2.3942093849 -3.2979211807 -0.54550266266 2.3942093849 -1.2241601944 -1.7652239799 5.5571093559 -2.8055419922 -1.226006031 
2.3942093849 -1.2241601944 -1.7652239799 5.5571093559 -1.2241601944 -1.9536204338 5.5571093559 -2.8055419922 -1.226006031 
4.7663836479 -2.8055419922 2.65513134 1.6034846306 -2.0148510933 1.2472667694 4.4888892174 -3.5962333679 1.8981161118 
7.9292836189 -2.8055419922 -0.73159265518 5.5571093559 -2.8055419922 -1.226006031 5.5571093559 -1.2241601944 -1.9536204338 
8.7200088501 -3.4127020836 3.5271949768 10.301458359 -1.2241601944 5.1227884293 7.1385588646 -2.8055419922 3.6971387863 
7.9292836189 -2.8055419922 -0.73159265518 9.5107326508 -1.2241601944 -0.96821260452 10.301458359 -2.2633314133 0.2690372467 
10.301458359 -2.2633314133 0.2690372467 7.9292836189 -3.8635454178 0.2690372467 7.9292836189 -2.8055419922 -0.73159265518 
8.7200088501 -3.4127020836 3.5271949768 10.301458359 -2.4215755463 4.3417348862 10.301458359 -1.2241601944 5.1227884293 
7.9292836189 -3.8635454178 0.2690372467 10.301458359 -2.2633314133 0.2690372467 11.070518494 -2.8055419922 1.8981161118 
10.301458359 -1.2241601944 5.1227884293 10.301458359 -2.4215755463 4.3417348862 12.673633575 -0.9337053299 5.1562747955 
11.070518494 -2.8055419922 1.8981161118 11.882907867 -2.3639202118 3.5271949768 10.301458359 -3.3769979477 2.7126560211 
10.301458359 -3.3769979477 2.7126560211 11.882907867 -2.3639202118 3.5271949768 10.301458359 -3.0963625908 3.5271949768 
12.673633575 -1.6322612762 4.3417348862 10.301458359 -2.4215755463 4.3417348862 11.882907867 -2.3639202118 3.5271949768 
11.882907867 -2.3639202118 3.5271949768 10.301458359 -2.4215755463 4.3417348862 10.301458359 -3.0963625908 3.5271949768 
10.301458359 -2.4215755463 4.3417348862 12.673633575 -1.6322612762 4.3417348862 12.673633575 -0.9337053299 5.1562747955 
11.882907867 -2.3639202118 3.5271949768 13.464357376 -1.326505661 3.5271949768 12.673633575 -1.6322612762 4.3417348862 
1.6034846306 -2.8156561852 -0.54550266266 0.82891702652 -1.2241601944 -0.54550266266 1.6034846306 -1.2241601944 -1.4868340492 
2.3942093849 -1.2241601944 -1.7652239799 1.6034846306 -2.8156561852 -0.54550266266 1.6034846306 -1.2241601944 -1.4868340492 
4.7663836479 -1.2241601944 3.1724300385 1.6034846306 -2.0148510933 1.2472667694 4.7663836479 -2.8055419922 2.65513134 
7.1385588646 -2.8055419922 3.6971387863 7.9292836189 -0.43346881866 4.7615861893 4.7663836479 -2.8055419922 2.65513134 
7.9292836189 -0.43346881866 4.7615861893 4.7663836479 -1.2241601944 3.1724300385 4.7663836479 -2.8055419922 2.65513134 
8.7200088501 0.35722255707 -1.9333367348 7.9292836189 -2.8055419922 -0.73159265518 5.5571093559 -1.2241601944 -1.9536204338 
8.7200088501 0.35722255707 -1.9333367348 9.5107326508 -1.2241601944 -0.96821260452 7.9292836189 -2.8055419922 -0.73159265518 
7.9292836189 -0.43346881866 4.7615861893 7.1385588646 -2.8055419922 3.6971387863 10.301458359 -1.2241601944 5.1227884293 
11.882907867 0.35722255707 -0.43372249603 10.301458359 -2.2633314133 0.2690372467 9.5107326508 -1.2241601944 -0.96821260452 
10.301458359 -2.2633314133 0.2690372467 13.400291443 -1.2241601944 2.7126560211 11.070518494 -2.8055419922 1.8981161118 
11.070518494 -2.8055419922 1.8981161118 13.400291443 -1.2241601944 2.7126560211 11.882907867 -2.3639202118 3.5271949768 
13.400291443 -1.2241601944 2.7126560211 13.464357376 -1.326505661 3.5271949768 11.882907867 -2.3639202118 3.5271949768 
0.82891702652 -1.2241601944 -0.54550266266 0.66238069534 -1.2241601944 0.2690372467 0.25887441635 0.35722255707 0.2690372467 
0.66238069534 -1.2241601944 0.2690372467 1.6034846306 -0.43346881866 1.7343130112 0.25887441635 0.35722255707 0.2690372467 
1.6034846306 -0.43346881866 1.7343130112 0.66238069534 -1.2241601944 0.2690372467 1.6034846306 -2.0148510933 1.2472667694 
4.7663836479 -1.2241601944 3.1724300385 1.6034846306 -0.43346881866 1.7343130112 1.6034846306 -2.0148510933 1.2472667694 
5.5571093559 -1.2241601944 -1.9536204338 2.3942093849 -1.2241601944 -1.7652239799 4.7663836479 1.1479129791 -2.353659153 
10.301458359 -1.2241601944 5.1227884293 11.092182159 1.1479129791 5.8677549362 7.9292836189 -0.43346881866 4.7615861893 
11.092182159 1.1479129791 5.8677549362 10.301458359 -1.2241601944 5.1227884293 11.882907867 0.35722255707 5.8434057236 
10.301458359 -1.2241601944 5.1227884293 12.673633575 -0.9337053299 5.1562747955 11.882907867 0.35722255707 5.8434057236 
10.301458359 -2.2633314133 0.2690372467 11.882907867 0.35722255707 -0.43372249603 13.047805786 -0.43346881866 1.0835762024 
10.301458359 -2.2633314133 0.2690372467 13.047805786 -0.43346881866 1.0835762024 13.400291443 -1.2241601944 2.7126560211 
12.673633575 -1.6322612762 4.3417348862 14.312984467 0.35722255707 5.1562747955 12.673633575 -0.9337053299 5.1562747955 
13.400291443 -1.2241601944 2.7126560211 14.844957352 0.35722255707 2.7126560211 13.464357376 -1.326505661 3.5271949768 
1.6034846306 1.9386043549 -1.4032592773 1.6034846306 -1.2241601944 -1.4868340492 0.82891702652 -1.2241601944 -0.54550266266 
0.25887441635 0.35722255707 0.2690372467 1.6034846306 1.9386043549 -1.4032592773 0.82891702652 -1.2241601944 -0.54550266266 
1.6034846306 -0.43346881866 1.7343130112 1.1130723953 1.1479129791 1.0835762024 0.25887441635 0.35722255707 0.2690372467 
1.6034846306 -0.43346881866 1.7343130112 1.6034846306 0.35722255707 1.7617101669 1.1130723953 1.1479129791 1.0835762024 
2.3942093849 -1.2241601944 -1.7652239799 1.6034846306 -1.2241601944 -1.4868340492 2.3942093849 0.35722255707 -1.9249992371 
2.3942093849 0.35722255707 -1.9249992371 1.6034846306 -1.2241601944 -1.4868340492 1.6034846306 1.9386043549 -1.4032592773 
4.7663836479 1.1479129791 -2.353659153 2.3942093849 -1.2241601944 -1.7652239799 2.3942093849 0.35722255707 -1.9249992371 
4.7663836479 -1.2241601944 3.1724300385 3.1849341393 0.35722255707 2.442243576 1.6034846306 -0.43346881866 1.7343130112 
3.1849341393 0.35722255707 2.442243576 1.6034846306 0.35722255707 1.7617101669 1.6034846306 -0.43346881866 1.7343130112 
3.1849341393 0.35722255707 2.442243576 4.7663836479 -1.2241601944 3.1724300385 7.1385588646 0.35722255707 4.5412864685 
[...]
CELL_DATA 852
FIELD FieldData 1
GroupIds 1 852 float
0 0 0 0 0 0 0 0 0 
0 0 0 0 0 0 0 0 0 
0 0 0 0 0 0 0 0 0 
0 0 0 0 0 0 0 0 0 
0 0 0 0 0 0 0 0 0 
0 0 0 0 0 0 0 0 0 
0 0 0 0 0 0 0 0 0 
0 0 0 0 0 0 0 0 0 
0 0 0 0 0 0 0 0 0 
0 0 0 0 0 0 0 0 0 
0 0 0 0 0 0 0 0 0 
0 0 0 0 0 0 0 0 0 
0 0 0 0 0 0 0 0 0 
0 0 0 0 0 0 0 0 0 
0 0 0 0 0 0 0 0 0 
0 0 0 0 0 0 0 0 0 
0 0 0 0 0 0 0 0 0 
0 0 0 0 0 0 0 0 0 
0 0 0 0 0 0 0 0 0 
0 0 0 0 0 0 0 0 0 
0 0 0 0 0 0 0 0 0 
0 0 0 0 0 0 0 0 0 
0 0 0 0 0 0 0 0 0 
0 0 0 0 0 0 0 0 0 
0 0 0 0 0 0 0 0 0 
0 0 0 0 0 0 0 0 0 
0 0 0 0 0 0 0 0 0 
0 0 0 0 0 0 0 0 0 
0 0 0 0 0 0 0 0 0 
0 0 0 0 0 0 0 0 0 
0 0 0 0 0 0 0 0 0 
0 0 0 0 0 0 0 0 0 
0 0 0 0 0 0 0 0 0 
0 0 0 0 0 0 0 0 0 
0 0 0 0 0 0 0 0 0 
0 0 0 0 0 0 0 0 0 
0 0 0 0 0 0 0 0 0 
0 0 0 0 0 0 0 0 0 
0 0 0 0 0 0 0 0 0 
0 0 0 0 0 0 0 0 0 
0 0 0 0 0 0 0 0 0 
0 0 0 0 0 0 0 0 0 
0 0 0 0 0 0 0 0 0 
0 0 0 0 0 0 0 0 0 
0 0 0 0 0 0 0 0 0 
0 0 0 0 0 0 0 0 0 
0 0 0 0 0 0 0 0 0 
0 0 0 0 0 0 0 0 0 
0 0 0 0 0 0 0 0 0 
0 0 0 0 0 0 0 0 0 
0 0 0 0 0 0 0 0 0 
0 0 0 0 0 0 0 0 0 
0 0 0 0 0 0 0 0 0 
0 0 0 0 0 0 0 0 0 
0 0 0 0 0 0 0 0 0 
0 0 0 0 0 0 0 0 0 
0 0 0 0 0 0 0 0 0 
0 0 0 0 0 0 0 0 0 
0 0 0 0 0 0 0 0 0 
0 0 0 0 0 0 0 0 0 
0 0 0 0 0 0 0 0 0 
0 0 0 0 0 0 0 0 0 
0 0 0 0 0 0 0 0 0 
0 0 0 0 0 0 0 0 0 
0 0 0 0 0 0 0 0 0 
0 0 0 0 0 0 0 0 0 
0 0 0 0 0 0 0 0 0 
0 0 0 0 0 0 0 0 0 
0 0 0 0 0 0 0 0 0 
0 0 0 0 0 0 0 0 0 
0 0 0 0 0 0 0 0 0 
0 0 0 0 0 0 0 0 0 
0 0 0 0 0 0 0 0 0 
0 0 0 0 0 0 0 0 0 
0 0 0 0 0 0 0 0 0 
0 0 0 0 0 0 0 0 0 
0 0 0 0 0 0 0 0 0 
0 0 0 0 0 0 0 0 0 
0 0 0 0 0 0 0 0 0 
0 0 0 0 0 0 0 0 0 
0 0 0 0 0 0 0 0 0 
0 0 0 0 0 0 0 0 0 
0 0 0 0 0 0 0 0 0 
0 0 0 0 0 0 0 0 0 
0 0 0 0 0 0 0 0 0 
0 0 0 0 0 0 0 0 0 
0 0 0 0 0 0 0 0 0 
0 0 0 0 0 0 0 0 0 
0 0 0 0 0 0 0 0 0 
0 0 0 0 0 0 0 0 0 
0 0 0 0 0 0 0 0 0 
0 0 0 0 0 0 0 0 0 
0 0 0 0 0 0 0 0 0 
0 0 0 0 0 0 0 0 0 
0 0 0 0 0 0 
POINT_DATA 2556
NORMALS Normals float
-0.0363536 -0.883018 -0.467928 -0.0363536 -0.883018 -0.467928 -0.0363536 -0.883018 -0.467928 
-0.0411055 -0.998442 -0.037742 -0.0411055 -0.998442 -0.037742 -0.0411055 -0.998442 -0.037742 
-0.257387 -0.940673 -0.221103 -0.257387 -0.940673 -0.221103 -0.257387 -0.940673 -0.221103 
-0.382138 -0.813723 0.43798 -0.382138 -0.813723 0.43798 -0.382138 -0.813723 0.43798 
-0.263789 -0.96407 -0.0313871 -0.263789 -0.96407 -0.0313871 -0.263789 -0.96407 -0.0313871 
0.0662232 -0.761925 -0.644271 0.0662232 -0.761925 -0.644271 0.0662232 -0.761925 -0.644271 
-0.295887 -0.827578 0.477038 -0.295887 -0.827578 0.477038 -0.295887 -0.827578 0.477038 
0.0865436 -0.995721 -0.0324175 0.0865436 -0.995721 -0.0324175 0.0865436 -0.995721 -0.0324175 
-0.27363 -0.765328 0.582581 -0.27363 -0.765328 0.582581 -0.27363 -0.765328 0.582581 
-0.192453 -0.809544 0.554617 -0.192453 -0.809544 0.554617 -0.192453 -0.809544 0.554617 
-0.0736221 -0.992145 -0.101139 -0.0736221 -0.992145 -0.101139 -0.0736221 -0.992145 -0.101139 
-0.0694798 -0.936321 0.344202 -0.0694798 -0.936321 0.344202 -0.0694798 -0.936321 0.344202 
0.475449 -0.777343 -0.411929 0.475449 -0.777343 -0.411929 0.475449 -0.777343 -0.411929 
-0.0793962 -0.732526 0.676093 -0.0793962 -0.732526 0.676093 -0.0793962 -0.732526 0.676093 
0.445834 -0.890501 -0.0907775 0.445834 -0.890501 -0.0907775 0.445834 -0.890501 -0.0907775 
0.267551 -0.904372 0.332457 0.267551 -0.904372 0.332457 0.267551 -0.904372 0.332457 
0.269367 -0.910512 0.313701 0.269367 -0.910512 0.313701 0.269367 -0.910512 0.313701 
0.167343 -0.836582 0.521658 0.167343 -0.836582 0.521658 0.167343 -0.836582 0.521658 
-0.767185 -0.586537 0.259619 -0.767185 -0.586537 0.259619 -0.767185 -0.586537 0.259619 
-0.766311 -0.585869 0.263678 -0.766311 -0.585869 0.263678 -0.766311 -0.585869 0.263678 
-0.510521 -0.837054 -0.196747 -0.510521 -0.837054 -0.196747 -0.510521 -0.837054 -0.196747 
-0.487437 -0.64895 0.584183 -0.487437 -0.64895 0.584183 -0.487437 -0.64895 0.584183 
-0.0301056 -0.738121 -0.673996 -0.0301056 -0.738121 -0.673996 -0.0301056 -0.738121 -0.673996 
-0.345434 -0.582904 0.735458 -0.345434 -0.582904 0.735458 -0.345434 -0.582904 0.735458 
-0.338418 -0.540296 0.770424 -0.338418 -0.540296 0.770424 -0.338418 -0.540296 0.770424 
0.149718 -0.679388 -0.718343 0.149718 -0.679388 -0.718343 0.149718 -0.679388 -0.718343 
-0.131312 -0.569203 0.811643 -0.131312 -0.569203 0.811643 -0.131312 -0.569203 0.811643 
0.438592 -0.876036 -0.200496 0.438592 -0.876036 -0.200496 0.438592 -0.876036 -0.200496 
0.152244 -0.761099 0.630515 0.152244 -0.761099 0.630515 0.152244 -0.761099 0.630515 
-0.884343 -0.430402 -0.180808 -0.884343 -0.430402 -0.180808 -0.884343 -0.430402 -0.180808 
-0.295407 -0.484352 -0.823491 -0.295407 -0.484352 -0.823491 -0.295407 -0.484352 -0.823491 
-0.10593 -0.504125 -0.85711 -0.10593 -0.504125 -0.85711 -0.10593 -0.504125 -0.85711 
-0.0540324 -0.41738 -0.907124 -0.0540324 -0.41738 -0.907124 -0.0540324 -0.41738 -0.907124 
-0.451953 -0.529032 0.718236 -0.451953 -0.529032 0.718236 -0.451953 -0.529032 0.718236 
0.186036 -0.410693 -0.892593 0.186036 -0.410693 -0.892593 0.186036 -0.410693 -0.892593 
-0.113404 -0.530512 0.840058 -0.113404 -0.530512 0.840058 -0.113404 -0.530512 0.840058 
0.429061 -0.537682 -0.725814 0.429061 -0.537682 -0.725814 0.429061 -0.537682 -0.725814 
0.420543 -0.623417 -0.659162 0.420543 -0.623417 -0.659162 0.420543 -0.623417 -0.659162 
-0.0886498 -0.544181 0.834271 -0.0886498 -0.544181 0.834271 -0.0886498 -0.544181 0.834271 
0.492086 -0.729474 -0.475098 0.492086 -0.729474 -0.475098 0.492086 -0.729474 -0.475098 
0.0549875 -0.545505 0.836302 0.0549875 -0.545505 0.836302 0.0549875 -0.545505 0.836302 
0.558161 -0.827981 -0.0538893 0.558161 -0.827981 -0.0538893 0.558161 -0.827981 -0.0538893 
0.401115 -0.866066 0.298388 0.401115 -0.866066 0.298388 0.401115 -0.866066 0.298388 
0.277127 -0.832867 0.479096 0.277127 -0.832867 0.479096 0.277127 -0.832867 0.479096 
0.335931 -0.725324 0.600878 0.335931 -0.725324 0.600878 0.335931 -0.725324 0.600878 
0.244885 -0.73597 0.631173 0.244885 -0.73597 0.631173 0.244885 -0.73597 0.631173 
0.535851 -0.816858 0.213557 0.535851 -0.816858 0.213557 0.535851 -0.816858 0.213557 
-0.72283 -0.351795 -0.594775 -0.72283 -0.351795 -0.594775 -0.72283 -0.351795 -0.594775 
-0.290008 -0.487212 -0.823723 -0.290008 -0.487212 -0.823723 -0.290008 -0.487212 -0.823723 
-0.447773 -0.277996 0.849834 -0.447773 -0.277996 0.849834 -0.447773 -0.277996 0.849834 
-0.387599 -0.266758 0.882387 -0.387599 -0.266758 0.882387 -0.387599 -0.266758 0.882387 
-0.371241 -0.288688 0.882519 -0.371241 -0.288688 0.882519 -0.371241 -0.288688 0.882519 
0.201512 -0.391526 -0.897831 0.201512 -0.391526 -0.897831 0.201512 -0.391526 -0.897831 
0.269045 -0.400142 -0.876072 0.269045 -0.400142 -0.876072 0.269045 -0.400142 -0.876072 
-0.247771 -0.326692 0.912076 -0.247771 -0.326692 0.912076 -0.247771 -0.326692 0.912076 
0.488645 -0.488712 -0.722764 0.488645 -0.488712 -0.722764 0.488645 -0.488712 -0.722764 
0.600015 -0.630058 -0.49296 0.600015 -0.630058 -0.49296 0.600015 -0.630058 -0.49296 
0.576184 -0.81461 -0.0665015 0.576184 -0.81461 -0.0665015 0.576184 -0.81461 -0.0665015 
0.542578 -0.827114 -0.146601 0.542578 -0.827114 -0.146601 0.542578 -0.827114 -0.146601 
-0.950483 -0.242526 -0.19433 -0.950483 -0.242526 -0.19433 -0.950483 -0.242526 -0.19433 
-0.773026 -0.197246 0.60293 -0.773026 -0.197246 0.60293 -0.773026 -0.197246 0.60293 
-0.778586 -0.184712 0.599737 -0.778586 -0.184712 0.599737 -0.778586 -0.184712 0.599737 
-0.452998 -0.262411 0.852017 -0.452998 -0.262411 0.852017 -0.452998 -0.262411 0.852017 
-0.0584336 -0.184922 -0.981014 -0.0584336 -0.184922 -0.981014 -0.0584336 -0.184922 -0.981014 
-0.219532 -0.224959 0.949315 -0.219532 -0.224959 0.949315 -0.219532 -0.224959 0.949315 
-0.202157 -0.23147 0.951606 -0.202157 -0.23147 0.951606 -0.202157 -0.23147 0.951606 
0.0423884 -0.449084 0.892483 0.0423884 -0.449084 0.892483 0.0423884 -0.449084 0.892483 
0.536994 -0.505231 -0.675559 0.536994 -0.505231 -0.675559 0.536994 -0.505231 -0.675559 
0.583442 -0.673873 -0.453311 0.583442 -0.673873 -0.453311 0.583442 -0.673873 -0.453311 
0.513074 -0.651554 0.558778 0.513074 -0.651554 0.558778 0.513074 -0.651554 0.558778 
0.730885 -0.667697 -0.141381 0.730885 -0.667697 -0.141381 0.730885 -0.667697 -0.141381 
-0.772082 0.0167876 -0.635302 -0.772082 0.0167876 -0.635302 -0.772082 0.0167876 -0.635302 
-0.792038 0.0285906 -0.609802 -0.792038 0.0285906 -0.609802 -0.792038 0.0285906 -0.609802 
-0.718379 0.0623275 0.692854 -0.718379 0.0623275 0.692854 -0.718379 0.0623275 0.692854 
-0.820958 -0.0197726 0.570645 -0.820958 -0.0197726 0.570645 -0.820958 -0.0197726 0.570645 
-0.330591 -0.0948714 -0.938994 -0.330591 -0.0948714 -0.938994 -0.330591 -0.0948714 -0.938994 
-0.518743 0.0225833 -0.854632 -0.518743 0.0225833 -0.854632 -0.518743 0.0225833 -0.854632 
-0.144741 -0.0994648 -0.984458 -0.144741 -0.0994648 -0.984458 -0.144741 -0.0994648 -0.984458 
-0.41212 0.00854825 0.911089 -0.41212 0.00854825 0.911089 -0.41212 0.00854825 0.911089 
-0.395078 -0.0318117 0.918097 -0.395078 -0.0318117 0.918097 -0.395078 -0.0318117 0.918097 
-0.468052 -0.0610056 0.881593 -0.468052 -0.0610056 0.881593 -0.468052 -0.0610056 0.881593 
-0.410747 -0.160713 0.897473 -0.410747 -0.160713 0.897473 -0.410747 -0.160713 0.897473 
0.343391 -0.436072 0.83182 0.343391 -0.436072 0.83182 0.343391 -0.436072 0.83182 
0.213448 -0.353941 0.910585 0.213448 -0.353941 0.910585 0.213448 -0.353941 0.910585 
0.663743 -0.60636 -0.437918 0.663743 -0.60636 -0.437918 0.663743 -0.60636 -0.437918 
0.62245 -0.705169 0.339549 0.62245 -0.705169 0.339549 0.62245 -0.705169 0.339549 
0.592076 -0.670759 0.446686 0.592076 -0.670759 0.446686 0.592076 -0.670759 0.446686 
-0.796948 0.365647 0.480808 -0.796948 0.365647 0.480808 -0.796948 0.365647 0.480808 
-0.468636 0.0351405 0.882692 -0.468636 0.0351405 0.882692 -0.468636 0.0351405 0.882692 
0.0070097 -0.16402 -0.986432 0.0070097 -0.16402 -0.986432 0.0070097 -0.16402 -0.986432 
0.133171 -0.254065 -0.957975 0.133171 -0.254065 -0.957975 0.133171 -0.254065 -0.957975 
-0.309651 -0.0450392 0.949783 -0.309651 -0.0450392 0.949783 -0.309651 -0.0450392 0.949783 
0.396814 -0.3254 -0.858285 0.396814 -0.3254 -0.858285 0.396814 -0.3254 -0.858285 
0.413025 -0.333075 -0.847627 0.413025 -0.333075 -0.847627 0.413025 -0.333075 -0.847627 
0.571438 -0.460975 -0.678941 0.571438 -0.460975 -0.678941 0.571438 -0.460975 -0.678941 
0.691343 -0.557702 -0.459362 0.691343 -0.557702 -0.459362 0.691343 -0.557702 -0.459362 
0.683161 -0.540118 -0.49149 0.683161 -0.540118 -0.49149 0.683161 -0.540118 -0.49149 
0.763445 -0.644714 -0.038685 0.763445 -0.644714 -0.038685 0.763445 -0.644714 -0.038685 
-0.9079 0.416554 -0.0469086 -0.9079 0.416554 -0.0469086 -0.9079 0.416554 -0.0469086 
-0.856861 0.254351 -0.448436 -0.856861 0.254351 -0.448436 -0.856861 0.254351 -0.448436 
-0.663006 0.206034 0.719704 -0.663006 0.206034 0.719704 -0.663006 0.206034 0.719704 
-0.443575 0.246663 0.861626 -0.443575 0.246663 0.861626 -0.443575 0.246663 0.861626 
-0.386745 0.206662 0.898732 -0.386745 0.206662 0.898732 -0.386745 0.206662 0.898732 
-0.520796 0.19131 0.831969 -0.520796 0.19131 0.831969 -0.520796 0.19131 0.831969 
-0.188933 0.0347884 -0.981374 -0.188933 0.0347884 -0.981374 -0.188933 0.0347884 -0.981374 
-0.00756565 -0.106794 -0.994252 -0.00756565 -0.106794 -0.994252 -0.00756565 -0.106794 -0.994252 
-0.329997 0.070899 0.941316 -0.329997 0.070899 0.941316 -0.329997 0.070899 0.941316 
0.41361 -0.333711 -0.847091 0.41361 -0.333711 -0.847091 0.41361 -0.333711 -0.847091 
0.152755 -0.151074 0.976649 0.152755 -0.151074 0.976649 0.152755 -0.151074 0.976649 
0.70861 -0.460512 0.534603 0.70861 -0.460512 0.534603 0.70861 -0.460512 0.534603 
0.565853 -0.367737 0.737956 0.565853 -0.367737 0.737956 0.565853 -0.367737 0.737956 
0.864327 -0.50102 -0.0437969 0.864327 -0.50102 -0.0437969 0.864327 -0.50102 -0.0437969 
0.762918 -0.442237 0.471574 0.762918 -0.442237 0.471574 0.762918 -0.442237 0.471574 
0.786341 -0.595679 0.163809 0.786341 -0.595679 0.163809 0.786341 -0.595679 0.163809 
-0.870673 0.42042 0.255295 -0.870673 0.42042 0.255295 -0.870673 0.42042 0.255295 
-0.874439 0.271739 0.401888 -0.874439 0.271739 0.401888 -0.874439 0.271739 0.401888 
-0.304941 0.157414 -0.939272 -0.304941 0.157414 -0.939272 -0.304941 0.157414 -0.939272 
-0.339479 0.389619 -0.856126 -0.339479 0.389619 -0.856126 -0.339479 0.389619 -0.856126 
-0.148698 0.0350326 -0.988262 -0.148698 0.0350326 -0.988262 -0.148698 0.0350326 -0.988262 
-0.358982 0.103669 0.927569 -0.358982 0.103669 0.927569 -0.358982 0.103669 0.927569 
0.263764 -0.184986 -0.946683 0.263764 -0.184986 -0.946683 0.263764 -0.184986 -0.946683 
-0.030384 -0.0611084 0.997669 -0.030384 -0.0611084 0.997669 -0.030384 -0.0611084 0.997669 
0.854341 -0.49241 -0.166234 0.854341 -0.49241 -0.166234 0.854341 -0.49241 -0.166234 
0.835036 -0.481284 -0.266609 0.835036 -0.481284 -0.266609 0.835036 -0.481284 -0.266609 
-0.492207 0.575322 -0.653251 -0.492207 0.575322 -0.653251 -0.492207 0.575322 -0.653251 
-0.900221 0.434687 -0.025489 -0.900221 0.434687 -0.025489 -0.900221 0.434687 -0.025489 
-0.624791 0.730295 -0.276236 -0.624791 0.730295 -0.276236 -0.624791 0.730295 -0.276236 
-0.526936 0.585289 -0.616259 -0.526936 0.585289 -0.616259 -0.526936 0.585289 -0.616259 
-0.607711 0.678808 0.412198 -0.607711 0.678808 0.412198 -0.607711 0.678808 0.412198 
-0.407839 0.455552 0.79129 -0.407839 0.455552 0.79129 -0.407839 0.455552 0.79129 
-0.483305 0.307579 0.819641 -0.483305 0.307579 0.819641 -0.483305 0.307579 0.819641 
0.274634 -0.209727 -0.938398 0.274634 -0.209727 -0.938398 0.274634 -0.209727 -0.938398 
-0.164285 0.0740858 0.983627 -0.164285 0.0740858 0.983627 -0.164285 0.0740858 0.983627 
0.569106 -0.445835 -0.690905 0.569106 -0.445835 -0.690905 0.569106 -0.445835 -0.690905 
0.318278 -0.12786 0.939335 0.318278 -0.12786 0.939335 0.318278 -0.12786 0.939335 
0.249615 -0.115636 0.961416 0.249615 -0.115636 0.961416 0.249615 -0.115636 0.961416 
0.486005 -0.194903 0.851946 0.486005 -0.194903 0.851946 0.486005 -0.194903 0.851946 
0.751846 -0.40545 -0.51994 0.751846 -0.40545 -0.51994 0.751846 -0.40545 -0.51994 
0.729799 -0.39356 -0.55902 0.729799 -0.39356 -0.55902 0.729799 -0.39356 -0.55902 
0.837315 -0.391712 -0.3814 0.837315 -0.391712 -0.3814 0.837315 -0.391712 -0.3814 
0.730333 -0.223399 0.645528 0.730333 -0.223399 0.645528 0.730333 -0.223399 0.645528 
-0.628957 0.716234 -0.302361 -0.628957 0.716234 -0.302361 -0.628957 0.716234 -0.302361 
-0.609577 0.694165 0.382818 -0.609577 0.694165 0.382818 -0.609577 0.694165 0.382818 
-0.544448 0.481472 0.686848 -0.544448 0.481472 0.686848 -0.544448 0.481472 0.686848 
-0.501659 0.397893 0.768127 -0.501659 0.397893 0.768127 -0.501659 0.397893 0.768127 
-0.166098 0.0898385 -0.982008 -0.166098 0.0898385 -0.982008 -0.166098 0.0898385 -0.982008 
0.0758967 -0.0788069 -0.993997 0.0758967 -0.0788069 -0.993997 0.0758967 -0.0788069 -0.993997 
0.0576258 -0.0743336 -0.995567 0.0576258 -0.0743336 -0.995567 0.0576258 -0.0743336 -0.995567 
-0.399766 0.208389 0.892615 -0.399766 0.208389 0.892615 -0.399766 0.208389 0.892615 
0.582634 -0.320751 -0.746764 0.582634 -0.320751 -0.746764 0.582634 -0.320751 -0.746764 
0.608137 -0.411704 -0.678726 0.608137 -0.411704 -0.678726 0.608137 -0.411704 -0.678726 
0.70639 -0.205139 0.677445 0.70639 -0.205139 0.677445 0.70639 -0.205139 0.677445 
0.924064 -0.330228 0.192499 0.924064 -0.330228 0.192499 0.924064 -0.330228 0.192499 
0.890801 -0.272484 0.363629 0.890801 -0.272484 0.363629 0.890801 -0.272484 0.363629 
-0.596835 0.544347 -0.589469 -0.596835 0.544347 -0.589469 -0.596835 0.544347 -0.589469 
-0.731543 0.667208 -0.140284 -0.731543 0.667208 -0.140284 -0.731543 0.667208 -0.140284 
-0.396194 0.299239 -0.868036 -0.396194 0.299239 -0.868036 -0.396194 0.299239 -0.868036 
-0.370843 0.30267 -0.87799 -0.370843 0.30267 -0.87799 -0.370843 0.30267 -0.87799 
-0.522533 0.54321 0.657177 -0.522533 0.54321 0.657177 -0.522533 0.54321 0.657177 
-0.0774406 0.0607457 -0.995145 -0.0774406 0.0607457 -0.995145 -0.0774406 0.0607457 -0.995145 
-0.156121 0.0981299 0.982851 -0.156121 0.0981299 0.982851 -0.156121 0.0981299 0.982851 
0.437972 -0.290168 -0.850872 0.437972 -0.290168 -0.850872 0.437972 -0.290168 -0.850872 
0.937029 -0.334861 0.099225 0.937029 -0.334861 0.099225 0.937029 -0.334861 0.099225 
-0.734711 0.554916 -0.390215 -0.734711 0.554916 -0.390215 -0.734711 0.554916 -0.390215 
-0.504803 0.338457 0.794117 -0.504803 0.338457 0.794117 -0.504803 0.338457 0.794117 
0.182178 0.0292163 -0.982831 0.182178 0.0292163 -0.982831 0.182178 0.0292163 -0.982831 
-0.321157 0.256404 0.911655 -0.321157 0.256404 0.911655 -0.321157 0.256404 0.911655 
-0.248707 0.243289 0.937526 -0.248707 0.243289 0.937526 -0.248707 0.243289 0.937526 
0.0392971 0.0992714 0.994284 0.0392971 0.0992714 0.994284 0.0392971 0.0992714 0.994284 
0.739524 -0.366372 -0.564691 0.739524 -0.366372 -0.564691 0.739524 -0.366372 -0.564691 
-0.569656 0.729847 0.377909 -0.569656 0.729847 0.377909 -0.569656 0.729847 0.377909 
-0.515149 0.713074 0.475548 -0.515149 0.713074 0.475548 -0.515149 0.713074 0.475548 
-0.550563 0.703744 -0.449026 -0.550563 0.703744 -0.449026 -0.550563 0.703744 -0.449026 
-0.615556 0.786821 0.0447529 -0.615556 0.786821 0.0447529 -0.615556 0.786821 0.0447529 
-0.614547 0.78736 0.0489531 -0.614547 0.78736 0.0489531 -0.614547 0.78736 0.0489531 
-0.36836 0.433944 -0.822194 -0.36836 0.433944 -0.822194 -0.36836 0.433944 -0.822194 
-0.243348 0.502486 -0.829632 -0.243348 0.502486 -0.829632 -0.243348 0.502486 -0.829632 
0.084307 0.219288 -0.972011 0.084307 0.219288 -0.972011 0.084307 0.219288 -0.972011 
-0.0569304 0.264033 -0.962832 -0.0569304 0.264033 -0.962832 -0.0569304 0.264033 -0.962832 
0.1119 0.0535078 -0.992278 0.1119 0.0535078 -0.992278 0.1119 0.0535078 -0.992278 
0.276513 -0.175681 -0.944816 0.276513 -0.175681 -0.944816 0.276513 -0.175681 -0.944816 
0.398774 -0.213725 -0.891797 0.398774 -0.213725 -0.891797 0.398774 -0.213725 -0.891797 
0.339063 -0.17198 -0.92491 0.339063 -0.17198 -0.92491 0.339063 -0.17198 -0.92491 
0.604847 -0.299651 -0.737814 0.604847 -0.299651 -0.737814 0.604847 -0.299651 -0.737814 
0.910733 -0.370145 0.183187 0.910733 -0.370145 0.183187 0.910733 -0.370145 0.183187 
-0.603335 0.710753 -0.361686 -0.603335 0.710753 -0.361686 -0.603335 0.710753 -0.361686 
-0.635057 0.653726 0.411517 -0.635057 0.653726 0.411517 -0.635057 0.653726 0.411517 
-0.559934 0.518839 0.645973 -0.559934 0.518839 0.645973 -0.559934 0.518839 0.645973 
-0.0673672 0.254248 -0.96479 -0.0673672 0.254248 -0.96479 -0.0673672 0.254248 -0.96479 
-0.415964 0.35655 0.836568 -0.415964 0.35655 0.836568 -0.415964 0.35655 0.836568 
0.11206 0.00137801 -0.9937 0.11206 0.00137801 -0.9937 0.11206 0.00137801 -0.9937 
-0.157417 0.330871 0.930454 -0.157417 0.330871 0.930454 -0.157417 0.330871 0.930454 
0.0815563 0.183489 0.979633 0.0815563 0.183489 0.979633 0.0815563 0.183489 0.979633 
0.689685 -0.115485 0.714841 0.689685 -0.115485 0.714841 0.689685 -0.115485 0.714841 
0.83564 -0.393547 -0.38318 0.83564 -0.393547 -0.38318 0.83564 -0.393547 -0.38318 
0.92625 -0.376451 -0.018597 0.92625 -0.376451 -0.018597 0.92625 -0.376451 -0.018597 
0.914905 -0.153198 0.373468 0.914905 -0.153198 0.373468 0.914905 -0.153198 0.373468 
-0.624564 0.642924 0.443361 -0.624564 0.642924 0.443361 -0.624564 0.642924 0.443361 
-0.254599 0.423051 -0.869602 -0.254599 0.423051 -0.869602 -0.254599 0.423051 -0.869602 
-0.554586 0.513884 0.654491 -0.554586 0.513884 0.654491 -0.554586 0.513884 0.654491 
-0.0577199 0.251364 -0.96617 -0.0577199 0.251364 -0.96617 -0.0577199 0.251364 -0.96617 
-0.2474 -0.130313 -0.96011 -0.2474 -0.130313 -0.96011 -0.2474 -0.130313 -0.96011 
-0.389807 0.483167 0.783964 -0.389807 0.483167 0.783964 -0.389807 0.483167 0.783964 
0.0634577 0.00138395 -0.997984 0.0634577 0.00138395 -0.997984 0.0634577 0.00138395 -0.997984 
0.372896 -0.224548 -0.900293 0.372896 -0.224548 -0.900293 0.372896 -0.224548 -0.900293 
0.208381 -0.047402 -0.976898 0.208381 -0.047402 -0.976898 0.208381 -0.047402 -0.976898 
0.585068 -0.245117 -0.773054 0.585068 -0.245117 -0.773054 0.585068 -0.245117 -0.773054 