# vtk DataFile Version 4.2
3D Slicer output. SPACE=LPS
ASCII
DATASET POLYDATA
POINTS 2592 double
1.6434774399 -2.8687896729 -0.69499778748 4.1746177673 -3.6860413551 -0.69499778748 4.1746177673 -4.1043996811 0.17910194397 
1.6434774399 -3.078458786 0.17910194397 1.6434774399 -2.8687896729 -0.69499778748 4.1746177673 -4.1043996811 0.17910194397 
1.6434774399 -3.078458786 0.17910194397 4.1746177673 -4.1043996811 0.17910194397 5.8620443344 -3.6102571487 2.7243051529 
4.1746177673 -3.6860413551 -0.69499778748 5.018330574 -2.7644085884 -1.4531135559 5.8620443344 -4.1714372635 0.17910194397 
4.1746177673 -3.6860413551 -0.69499778748 5.8620443344 -4.1714372635 0.17910194397 4.1746177673 -4.1043996811 0.17910194397 
4.1746177673 -4.1043996811 0.17910194397 5.8620443344 -4.2051725388 1.9273023605 5.8620443344 -3.6102571487 2.7243051529 
5.8620443344 -4.1714372635 0.17910194397 5.8620443344 -4.2051725388 1.9273023605 4.1746177673 -4.1043996811 0.17910194397 
5.8620443344 -4.2051725388 1.9273023605 7.5494709015 -2.7644085884 4.0452346802 5.8620443344 -3.6102571487 2.7243051529 
5.8620443344 -4.1714372635 0.17910194397 8.3931837082 -4.2695426941 1.9273023605 5.8620443344 -4.2051725388 1.9273023605 
8.3931837082 -3.5148091316 0.17910194397 8.3931837082 -4.2695426941 1.9273023605 5.8620443344 -4.1714372635 0.17910194397 
5.8620443344 -4.2051725388 1.9273023605 8.3931837082 -4.2695426941 1.9273023605 8.3931837082 -3.4825534821 3.6755018234 
7.5494709015 -2.7644085884 4.0452346802 5.8620443344 -4.2051725388 1.9273023605 8.3931837082 -3.4825534821 3.6755018234 
8.3931837082 -3.5148091316 0.17910194397 10.080611229 -3.4941525459 2.801402092 8.3931837082 -4.2695426941 1.9273023605 
8.3931837082 -3.4825534821 3.6755018234 8.3931837082 -4.2695426941 1.9273023605 9.2368974686 -3.4230866432 3.6755018234 
8.3931837082 -4.2695426941 1.9273023605 10.080611229 -3.4941525459 2.801402092 9.2368974686 -3.4230866432 3.6755018234 
1.6434774399 -1.9185605049 1.3312616348 1.6434774399 -3.078458786 0.17910194397 5.8620443344 -3.6102571487 2.7243051529 
5.8620443344 -4.1714372635 0.17910194397 5.018330574 -2.7644085884 -1.4531135559 8.3931837082 -3.5148091316 0.17910194397 
5.018330574 -1.9185605049 3.2375020981 1.6434774399 -1.9185605049 1.3312616348 5.8620443344 -3.6102571487 2.7243051529 
5.018330574 -2.7644085884 -1.4531135559 10.080611229 -1.0727124214 -0.85745429993 8.3931837082 -3.5148091316 0.17910194397 
10.485782623 -2.7644085884 1.0532016754 10.080611229 -3.4941525459 2.801402092 8.3931837082 -3.5148091316 0.17910194397 
8.3931837082 -3.4825534821 3.6755018234 9.2368974686 -3.4230866432 3.6755018234 10.080611229 -2.3900513649 4.5496025085 
10.485782623 -2.7644085884 1.0532016754 12.611751556 -1.7606139183 2.801402092 10.080611229 -3.4941525459 2.801402092 
12.611751556 -1.7606139183 2.801402092 11.768037796 -2.3366436958 3.6755018234 10.080611229 -3.4941525459 2.801402092 
9.2368974686 -3.4230866432 3.6755018234 10.080611229 -3.4941525459 2.801402092 11.768037796 -2.3366436958 3.6755018234 
10.080611229 -2.3900513649 4.5496025085 9.2368974686 -3.4230866432 3.6755018234 11.768037796 -2.3366436958 3.6755018234 
1.6434774399 -2.8687896729 -0.69499778748 1.6434774399 -1.9185605049 -1.4269151688 4.1746177673 -1.0727124214 -2.2041759491 
4.1746177673 -3.6860413551 -0.69499778748 1.6434774399 -2.8687896729 -0.69499778748 4.1746177673 -1.0727124214 -2.2041759491 
4.1746177673 -1.0727124214 -2.2041759491 5.8620443344 -1.0727124214 -2.1535663605 5.018330574 -2.7644085884 -1.4531135559 
4.1746177673 -3.6860413551 -0.69499778748 4.1746177673 -1.0727124214 -2.2041759491 5.018330574 -2.7644085884 -1.4531135559 
7.5494709015 -2.7644085884 4.0452346802 5.018330574 -1.9185605049 3.2375020981 5.8620443344 -3.6102571487 2.7243051529 
5.8620443344 -1.0727124214 -2.1535663605 10.080611229 -1.0727124214 -0.85745429993 5.018330574 -2.7644085884 -1.4531135559 
7.5494709015 -2.7644085884 4.0452346802 8.3931837082 -3.4825534821 3.6755018234 9.2368974686 -1.9185605049 4.8404541016 
10.080611229 -1.0727124214 -0.85745429993 10.485782623 -2.7644085884 1.0532016754 8.3931837082 -3.5148091316 0.17910194397 
10.080611229 -2.3900513649 4.5496025085 9.2368974686 -1.9185605049 4.8404541016 8.3931837082 -3.4825534821 3.6755018234 
11.768037796 -2.3366436958 3.6755018234 13.455463409 -0.81263971329 4.5496025085 10.080611229 -2.3900513649 4.5496025085 
1.6434774399 -3.078458786 0.17910194397 1.6434774399 -1.9185605049 1.3312616348 0.13580846786 -0.22686386108 0.17910194397 
1.6434774399 -1.9185605049 -1.4269151688 1.6434774399 -2.8687896729 -0.69499778748 0.13580846786 -0.22686386108 0.17910194397 
0.13580846786 -0.22686386108 0.17910194397 1.6434774399 -2.8687896729 -0.69499778748 1.6434774399 -3.078458786 0.17910194397 
5.018330574 -1.9185605049 3.2375020981 1.6434774399 -1.0727124214 1.6252717972 1.6434774399 -1.9185605049 1.3312616348 
8.3931837082 -0.22686386108 5.1560821533 5.018330574 -1.9185605049 3.2375020981 7.5494709015 -2.7644085884 4.0452346802 
9.2368974686 0.61898422241 -2.0999507904 10.080611229 -1.0727124214 -0.85745429993 5.8620443344 -1.0727124214 -2.1535663605 
8.3931837082 -0.22686386108 5.1560821533 7.5494709015 -2.7644085884 4.0452346802 9.2368974686 -1.9185605049 4.8404541016 
10.485782623 -2.7644085884 1.0532016754 13.84495163 -0.22686386108 1.9273023605 12.611751556 -1.7606139183 2.801402092 
12.611751556 -1.7606139183 2.801402092 14.29917717 -0.32365894318 3.6755018234 11.768037796 -2.3366436958 3.6755018234 
11.768037796 -2.3366436958 3.6755018234 14.29917717 -0.32365894318 3.6755018234 13.455463409 -0.81263971329 4.5496025085 
1.6434774399 -0.22686386108 -1.8184328079 1.6434774399 -1.9185605049 -1.4269151688 0.13580846786 -0.22686386108 0.17910194397 
1.6434774399 -1.9185605049 1.3312616348 1.6434774399 -1.0727124214 1.6252717972 0.13580846786 -0.22686386108 0.17910194397 
2.4871907234 0.61898422241 -2.1704683304 1.6434774399 -1.9185605049 -1.4269151688 1.6434774399 -0.22686386108 -1.8184328079 
4.1746177673 -1.0727124214 -2.2041759491 1.6434774399 -1.9185605049 -1.4269151688 2.4871907234 0.61898422241 -2.1704683304 
1.6434774399 -1.0727124214 1.6252717972 5.018330574 -1.9185605049 3.2375020981 8.3931837082 -0.22686386108 5.1560821533 
9.2368974686 -1.9185605049 4.8404541016 10.080611229 -0.22686386108 5.5180225372 8.3931837082 -0.22686386108 5.1560821533 
12.611751556 0.61898422241 -0.23283958435 10.485782623 -2.7644085884 1.0532016754 10.080611229 -1.0727124214 -0.85745429993 
10.080611229 -2.3900513649 4.5496025085 10.080611229 -0.22686386108 5.5180225372 9.2368974686 -1.9185605049 4.8404541016 
10.080611229 -0.22686386108 5.5180225372 10.080611229 -2.3900513649 4.5496025085 13.455463409 0.61898422241 5.8668518066 
10.485782623 -2.7644085884 1.0532016754 12.611751556 0.61898422241 -0.23283958435 13.84495163 -0.22686386108 1.9273023605 
13.455463409 -0.81263971329 4.5496025085 13.455463409 0.61898422241 5.8668518066 10.080611229 -2.3900513649 4.5496025085 
13.84495163 -0.22686386108 1.9273023605 14.29917717 -0.32365894318 3.6755018234 12.611751556 -1.7606139183 2.801402092 
13.455463409 -0.81263971329 4.5496025085 14.29917717 0.549451828 5.42370224 13.455463409 0.61898422241 5.8668518066 
14.29917717 -0.32365894318 3.6755018234 14.952886581 0.61898422241 4.5496025085 13.455463409 -0.81263971329 4.5496025085 
0.60684585571 0.61898422241 -0.69499778748 1.6434774399 -0.22686386108 -1.8184328079 0.13580846786 -0.22686386108 0.17910194397 
0.13580846786 -0.22686386108 0.17910194397 0.25975418091 0.61898422241 0.17910194397 0.60684585571 0.61898422241 -0.69499778748 
1.6434774399 -1.0727124214 1.6252717972 1.6434774399 0.61898422241 1.7585868835 0.25975418091 0.61898422241 0.17910194397 
0.13580846786 -0.22686386108 0.17910194397 1.6434774399 -1.0727124214 1.6252717972 0.25975418091 0.61898422241 0.17910194397 
1.6434774399 -1.0727124214 1.6252717972 3.330904007 1.4648323059 2.4855031967 1.6434774399 0.61898422241 1.7585868835 
5.018330574 1.4648323059 -2.7041769028 4.1746177673 -1.0727124214 -2.2041759491 2.4871907234 0.61898422241 -2.1704683304 
4.1746177673 -1.0727124214 -2.2041759491 5.018330574 1.4648323059 -2.7041769028 5.8620443344 -1.0727124214 -2.1535663605 
7.5494709015 1.4648323059 4.8830356598 1.6434774399 -1.0727124214 1.6252717972 8.3931837082 -0.22686386108 5.1560821533 
8.3931837082 2.3106803894 -2.8492841721 9.2368974686 0.61898422241 -2.0999507904 5.8620443344 -1.0727124214 -2.1535663605 
11.768037796 2.3106803894 6.2504367828 7.5494709015 1.4648323059 4.8830356598 10.080611229 -0.22686386108 5.5180225372 
7.5494709015 1.4648323059 4.8830356598 8.3931837082 -0.22686386108 5.1560821533 10.080611229 -0.22686386108 5.5180225372 
14.952886581 0.61898422241 4.5496025085 14.29917717 0.549451828 5.42370224 13.455463409 -0.81263971329 4.5496025085 
15.07062149 0.61898422241 3.6755018234 14.29917717 -0.32365894318 3.6755018234 13.84495163 -0.22686386108 1.9273023605 
14.952886581 0.61898422241 4.5496025085 14.29917717 -0.32365894318 3.6755018234 15.07062149 0.61898422241 3.6755018234 
1.6434774399 1.4648323059 -1.7443752289 1.6434774399 -0.22686386108 -1.8184328079 0.60684585571 0.61898422241 -0.69499778748 
1.6434774399 0.61898422241 1.7585868835 1.4015841484 2.3106803894 1.0532016754 0.25975418091 0.61898422241 0.17910194397 
2.4871907234 0.61898422241 -2.1704683304 1.6434774399 -0.22686386108 -1.8184328079 1.6434774399 1.4648323059 -1.7443752289 
6.7057571411 2.3106803894 4.3720293045 3.330904007 1.4648323059 2.4855031967 1.6434774399 -1.0727124214 1.6252717972 
7.5494709015 1.4648323059 4.8830356598 6.7057571411 2.3106803894 4.3720293045 1.6434774399 -1.0727124214 1.6252717972 
10.080611229 -1.0727124214 -0.85745429993 9.2368974686 0.61898422241 -2.0999507904 12.611751556 0.61898422241 -0.23283958435 
12.611751556 0.61898422241 -0.23283958435 15.14289093 3.3647480011 0.17910194397 13.84495163 -0.22686386108 1.9273023605 
[...]
CELL_DATA 864
FIELD FieldData 1
GroupIds 1 864 float
0 0 0 0 0 0 0 0 0 
0 0 0 0 0 0 0 0 0 
0 0 0 0 0 0 0 0 0 
0 0 0 0 0 0 0 0 0 
0 0 0 0 0 0 0 0 0 
0 0 0 0 0 0 0 0 0 
0 0 0 0 0 0 0 0 0 
0 0 0 0 0 0 0 0 0 
0 0 0 0 0 0 0 0 0 
0 0 0 0 0 0 0 0 0 
0 0 0 0 0 0 0 0 0 
0 0 0 0 0 0 0 0 0 
0 0 0 0 0 0 0 0 0 
0 0 0 0 0 0 0 0 0 
0 0 0 0 0 0 0 0 0 
0 0 0 0 0 0 0 0 0 
0 0 0 0 0 0 0 0 0 
0 0 0 0 0 0 0 0 0 
0 0 0 0 0 0 0 0 0 
0 0 0 0 0 0 0 0 0 
0 0 0 0 0 0 0 0 0 
0 0 0 0 0 0 0 0 0 
0 0 0 0 0 0 0 0 0 
0 0 0 0 0 0 0 0 0 
0 0 0 0 0 0 0 0 0 
0 0 0 0 0 0 0 0 0 
0 0 0 0 0 0 0 0 0 
0 0 0 0 0 0 0 0 0 
0 0 0 0 0 0 0 0 0 
0 0 0 0 0 0 0 0 0 
0 0 0 0 0 0 0 0 0 
0 0 0 0 0 0 0 0 0 
0 0 0 0 0 0 0 0 0 
0 0 0 0 0 0 0 0 0 
0 0 0 0 0 0 0 0 0 
0 0 0 0 0 0 0 0 0 
0 0 0 0 0 0 0 0 0 
0 0 0 0 0 0 0 0 0 
0 0 0 0 0 0 0 0 0 
0 0 0 0 0 0 0 0 0 
0 0 0 0 0 0 0 0 0 
0 0 0 0 0 0 0 0 0 
0 0 0 0 0 0 0 0 0 
0 0 0 0 0 0 0 0 0 
0 0 0 0 0 0 0 0 0 
0 0 0 0 0 0 0 0 0 
0 0 0 0 0 0 0 0 0 
0 0 0 0 0 0 0 0 0 
0 0 0 0 0 0 0 0 0 
0 0 0 0 0 0 0 0 0 
0 0 0 0 0 0 0 0 0 
0 0 0 0 0 0 0 0 0 
0 0 0 0 0 0 0 0 0 
0 0 0 0 0 0 0 0 0 
0 0 0 0 0 0 0 0 0 
0 0 0 0 0 0 0 0 0 
0 0 0 0 0 0 0 0 0 
0 0 0 0 0 0 0 0 0 
0 0 0 0 0 0 0 0 0 
0 0 0 0 0 0 0 0 0 
0 0 0 0 0 0 0 0 0 
0 0 0 0 0 0 0 0 0 
0 0 0 0 0 0 0 0 0 
0 0 0 0 0 0 0 0 0 
0 0 0 0 0 0 0 0 0 
0 0 0 0 0 0 0 0 0 
0 0 0 0 0 0 0 0 0 
0 0 0 0 0 0 0 0 0 
0 0 0 0 0 0 0 0 0 
0 0 0 0 0 0 0 0 0 
0 0 0 0 0 0 0 0 0 
0 0 0 0 0 0 0 0 0 
0 0 0 0 0 0 0 0 0 
0 0 0 0 0 0 0 0 0 
0 0 0 0 0 0 0 0 0 
0 0 0 0 0 0 0 0 0 
0 0 0 0 0 0 0 0 0 
0 0 0 0 0 0 0 0 0 
0 0 0 0 0 0 0 0 0 
0 0 0 0 0 0 0 0 0 
0 0 0 0 0 0 0 0 0 
0 0 0 0 0 0 0 0 0 
0 0 0 0 0 0 0 0 0 
0 0 0 0 0 0 0 0 0 
0 0 0 0 0 0 0 0 0 
0 0 0 0 0 0 0 0 0 
0 0 0 0 0 0 0 0 0 
0 0 0 0 0 0 0 0 0 
0 0 0 0 0 0 0 0 0 
0 0 0 0 0 0 0 0 0 
0 0 0 0 0 0 0 0 0 
0 0 0 0 0 0 0 0 0 
0 0 0 0 0 0 0 0 0 
0 0 0 0 0 0 0 0 0 
0 0 0 0 0 0 0 0 0 
0 0 0 0 0 0 0 0 0 

POINT_DATA 2592
NORMALS Normals float
-0.279622 -0.866028 -0.414495 -0.279622 -0.866028 -0.414495 -0.279622 -0.866028 -0.414495 
-0.366692 -0.90468 -0.217004 -0.366692 -0.90468 -0.217004 -0.366692 -0.90468 -0.217004 
-0.34522 -0.851707 0.394231 -0.34522 -0.851707 0.394231 -0.34522 -0.851707 0.394231 
0.153582 -0.707788 -0.689528 0.153582 -0.707788 -0.689528 0.153582 -0.707788 -0.689528 
-0.0358118 -0.901431 -0.431439 -0.0358118 -0.901431 -0.431439 -0.0358118 -0.901431 -0.431439 
-0.555223 -0.666498 0.497502 -0.555223 -0.666498 0.497502 -0.555223 -0.666498 0.497502 
-0.039689 -0.999026 -0.0192784 -0.039689 -0.999026 -0.0192784 -0.039689 -0.999026 -0.0192784 
-0.0664096 -0.799598 0.596852 -0.0664096 -0.799598 0.596852 -0.0664096 -0.799598 0.596852 
-0.0254183 -0.999491 -0.0192873 -0.0254183 -0.999491 -0.0192873 -0.0254183 -0.999491 -0.0192873 
0.231691 -0.893113 -0.385575 0.231691 -0.893113 -0.385575 0.231691 -0.893113 -0.385575 
-0.0231836 -0.911618 0.410384 -0.0231836 -0.911618 0.410384 -0.0231836 -0.911618 0.410384 
-0.277526 -0.676998 0.681655 -0.277526 -0.676998 0.681655 -0.277526 -0.676998 0.681655 
0.531333 -0.777776 -0.335782 0.531333 -0.777776 -0.335782 0.531333 -0.777776 -0.335782 
0.0641379 -0.909986 0.409649 0.0641379 -0.909986 0.409649 0.0641379 -0.909986 0.409649 
0.254034 -0.912926 0.319426 0.254034 -0.912926 0.319426 0.254034 -0.912926 0.319426 
-0.459174 -0.62605 0.630255 -0.459174 -0.62605 0.630255 -0.459174 -0.62605 0.630255 
0.180765 -0.696804 -0.69411 0.180765 -0.696804 -0.69411 0.180765 -0.696804 -0.69411 
-0.438221 -0.453917 0.775836 -0.438221 -0.453917 0.775836 -0.438221 -0.453917 0.775836 
0.271348 -0.528832 -0.804181 0.271348 -0.528832 -0.804181 0.271348 -0.528832 -0.804181 
0.421499 -0.867428 -0.264398 0.421499 -0.867428 -0.264398 0.421499 -0.867428 -0.264398 
0.0470352 -0.667333 0.743272 0.0470352 -0.667333 0.743272 0.0470352 -0.667333 0.743272 
0.552616 -0.806874 -0.208733 0.552616 -0.806874 -0.208733 0.552616 -0.806874 -0.208733 
0.565062 -0.825047 0.0017147 0.565062 -0.825047 0.0017147 0.565062 -0.825047 0.0017147 
0.358957 -0.83628 0.41447 0.358957 -0.83628 0.41447 0.358957 -0.83628 0.41447 
0.322327 -0.750942 0.576361 0.322327 -0.750942 0.576361 0.322327 -0.750942 0.576361 
-0.0393265 -0.609748 -0.791619 -0.0393265 -0.609748 -0.791619 -0.0393265 -0.609748 -0.791619 
-0.159405 -0.493698 -0.854899 -0.159405 -0.493698 -0.854899 -0.159405 -0.493698 -0.854899 
0.0275523 -0.394112 -0.91865 0.0275523 -0.394112 -0.91865 0.0275523 -0.394112 -0.91865 
-0.225849 -0.487171 -0.843597 -0.225849 -0.487171 -0.843597 -0.225849 -0.487171 -0.843597 
-0.403654 -0.443995 0.799958 -0.403654 -0.443995 0.799958 -0.403654 -0.443995 0.799958 
0.258175 -0.476692 -0.840304 0.258175 -0.476692 -0.840304 0.258175 -0.476692 -0.840304 
-0.110655 -0.554607 0.824722 -0.110655 -0.554607 0.824722 -0.110655 -0.554607 0.824722 
0.48182 -0.602852 -0.63594 0.48182 -0.602852 -0.63594 0.48182 -0.602852 -0.63594 
-0.044653 -0.581157 0.812565 -0.044653 -0.581157 0.812565 -0.044653 -0.581157 0.812565 
0.336784 -0.720546 0.606127 0.336784 -0.720546 0.606127 0.336784 -0.720546 0.606127 
-0.799914 -0.422923 0.425764 -0.799914 -0.422923 0.425764 -0.799914 -0.422923 0.425764 
-0.836839 -0.334064 -0.433707 -0.836839 -0.334064 -0.433707 -0.836839 -0.334064 -0.433707 
-0.87854 -0.464493 -0.111417 -0.87854 -0.464493 -0.111417 -0.87854 -0.464493 -0.111417 
-0.47072 -0.289674 0.833374 -0.47072 -0.289674 0.833374 -0.47072 -0.289674 0.833374 
-0.372485 -0.265441 0.889267 -0.372485 -0.265441 0.889267 -0.372485 -0.265441 0.889267 
0.256727 -0.485675 -0.83559 0.256727 -0.485675 -0.83559 0.256727 -0.485675 -0.83559 
-0.275279 -0.307251 0.910944 -0.275279 -0.307251 0.910944 -0.275279 -0.307251 0.910944 
0.620717 -0.700161 -0.352824 0.620717 -0.700161 -0.352824 0.620717 -0.700161 -0.352824 
0.620206 -0.77985 0.084726 0.620206 -0.77985 0.084726 0.620206 -0.77985 0.084726 
0.614339 -0.772473 0.160853 0.614339 -0.772473 0.160853 0.614339 -0.772473 0.160853 
-0.790524 -0.138088 -0.59666 -0.790524 -0.138088 -0.59666 -0.790524 -0.138088 -0.59666 
-0.736946 -0.221931 0.63848 -0.736946 -0.221931 0.63848 -0.736946 -0.221931 0.63848 
-0.177587 -0.221891 -0.958763 -0.177587 -0.221891 -0.958763 -0.177587 -0.221891 -0.958763 
-0.2242 -0.204649 -0.952813 -0.2242 -0.204649 -0.952813 -0.2242 -0.204649 -0.952813 
-0.450293 -0.107018 0.886444 -0.450293 -0.107018 0.886444 -0.450293 -0.107018 0.886444 
-0.201583 -0.275883 0.939815 -0.201583 -0.275883 0.939815 -0.201583 -0.275883 0.939815 
0.535805 -0.572553 -0.620561 0.535805 -0.572553 -0.620561 0.535805 -0.572553 -0.620561 
0.0859779 -0.407091 0.909332 0.0859779 -0.407091 0.909332 0.0859779 -0.407091 0.909332 
0.00807026 -0.408591 0.912682 0.00807026 -0.408591 0.912682 0.00807026 -0.408591 0.912682 
0.586454 -0.58245 -0.56287 0.586454 -0.58245 -0.56287 0.586454 -0.58245 -0.56287 
0.301728 -0.645543 0.701594 0.301728 -0.645543 0.701594 0.301728 -0.645543 0.701594 
0.695834 -0.684104 -0.218673 0.695834 -0.684104 -0.218673 0.695834 -0.684104 -0.218673 
0.31399 -0.642856 0.698674 0.31399 -0.642856 0.698674 0.31399 -0.642856 0.698674 
0.668374 -0.699093 0.254059 0.668374 -0.699093 0.254059 0.668374 -0.699093 0.254059 
-0.78581 -0.175308 -0.593102 -0.78581 -0.175308 -0.593102 -0.78581 -0.175308 -0.593102 
-0.920907 0.134944 -0.365678 -0.920907 0.134944 -0.365678 -0.920907 0.134944 -0.365678 
-0.751169 -0.0518595 0.658069 -0.751169 -0.0518595 0.658069 -0.751169 -0.0518595 0.658069 
-0.660188 0.0967401 0.744845 -0.660188 0.0967401 0.744845 -0.660188 0.0967401 0.744845 
-0.363404 -0.0731908 0.928752 -0.363404 -0.0731908 0.928752 -0.363404 -0.0731908 0.928752 
-0.159433 -0.139557 -0.977295 -0.159433 -0.139557 -0.977295 -0.159433 -0.139557 -0.977295 
0.0293568 -0.202628 -0.978816 0.0293568 -0.202628 -0.978816 0.0293568 -0.202628 -0.978816 
-0.453721 -0.08308 0.887263 -0.453721 -0.08308 0.887263 -0.453721 -0.08308 0.887263 
0.176926 -0.323498 -0.929541 0.176926 -0.323498 -0.929541 0.176926 -0.323498 -0.929541 
-0.292733 -0.0803485 0.952812 -0.292733 -0.0803485 0.952812 -0.292733 -0.0803485 0.952812 
-0.209426 0.0531429 0.976379 -0.209426 0.0531429 0.976379 -0.209426 0.0531429 0.976379 
0.627974 -0.656836 0.417391 0.627974 -0.656836 0.417391 0.627974 -0.656836 0.417391 
0.753166 -0.616379 -0.229819 0.753166 -0.616379 -0.229819 0.753166 -0.616379 -0.229819 
0.76971 -0.629919 0.103674 0.76971 -0.629919 0.103674 0.76971 -0.629919 0.103674 
-0.723156 0.0302073 -0.690024 -0.723156 0.0302073 -0.690024 -0.723156 0.0302073 -0.690024 
-0.741882 0.164921 0.649933 -0.741882 0.164921 0.649933 -0.741882 0.164921 0.649933 
-0.418424 0.0397226 -0.907383 -0.418424 0.0397226 -0.907383 -0.418424 0.0397226 -0.907383 
-0.494152 0.0341102 0.868706 -0.494152 0.0341102 0.868706 -0.494152 0.0341102 0.868706 
-0.493506 0.0328065 0.869123 -0.493506 0.0328065 0.869123 -0.493506 0.0328065 0.869123 
0.44928 -0.372377 -0.812085 0.44928 -0.372377 -0.812085 0.44928 -0.372377 -0.812085 
0.64571 -0.509974 -0.568319 0.64571 -0.509974 -0.568319 0.64571 -0.509974 -0.568319 
-0.787916 0.295155 -0.540437 -0.787916 0.295155 -0.540437 -0.787916 0.295155 -0.540437 
-0.849397 0.405913 -0.337283 -0.849397 0.405913 -0.337283 -0.849397 0.405913 -0.337283 
-0.853159 0.40771 0.32541 -0.853159 0.40771 0.32541 -0.853159 0.40771 0.32541 
-0.49301 0.27384 0.825804 -0.49301 0.27384 0.825804 -0.49301 0.27384 0.825804 
0.0102789 -0.208775 -0.97791 0.0102789 -0.208775 -0.97791 0.0102789 -0.208775 -0.97791 
0.245022 -0.287876 -0.925792 0.245022 -0.287876 -0.925792 0.245022 -0.287876 -0.925792 
-0.0359698 -0.254978 0.966278 -0.0359698 -0.254978 0.966278 -0.0359698 -0.254978 0.966278 
0.418198 -0.326887 0.847499 0.418198 -0.326887 0.847499 0.418198 -0.326887 0.847499 
0.769743 -0.584365 -0.256931 0.769743 -0.584365 -0.256931 0.769743 -0.584365 -0.256931 
0.828338 -0.549006 0.111571 0.828338 -0.549006 0.111571 0.828338 -0.549006 0.111571 
0.861278 -0.508105 -0.00540413 0.861278 -0.508105 -0.00540413 0.861278 -0.508105 -0.00540413 
0.709638 -0.443416 0.547537 0.709638 -0.443416 0.547537 0.709638 -0.443416 0.547537 
0.721218 -0.478009 0.50135 0.721218 -0.478009 0.50135 0.721218 -0.478009 0.50135 
-0.935214 0.350333 -0.0513956 -0.935214 0.350333 -0.0513956 -0.935214 0.350333 -0.0513956 
-0.636686 0.532741 0.55751 -0.636686 0.532741 0.55751 -0.636686 0.532741 0.55751 
-0.443244 0.37088 0.816077 -0.443244 0.37088 0.816077 -0.443244 0.37088 0.816077 
-0.521445 0.293655 0.801163 -0.521445 0.293655 0.801163 -0.521445 0.293655 0.801163 
-0.0129275 -0.118745 -0.992841 -0.0129275 -0.118745 -0.992841 -0.0129275 -0.118745 -0.992841 
-0.382683 0.167213 0.908622 -0.382683 0.167213 0.908622 -0.382683 0.167213 0.908622 
-0.388724 0.170307 0.905477 -0.388724 0.170307 0.905477 -0.388724 0.170307 0.905477 
-0.3019 -0.0344744 0.952716 -0.3019 -0.0344744 0.952716 -0.3019 -0.0344744 0.952716 
0.441994 -0.40789 -0.798916 0.441994 -0.40789 -0.798916 0.441994 -0.40789 -0.798916 
0.100462 -0.123642 0.987229 0.100462 -0.123642 0.987229 0.100462 -0.123642 0.987229 
0.741589 -0.490672 -0.457479 0.741589 -0.490672 -0.457479 0.741589 -0.490672 -0.457479 
0.579026 -0.353444 0.734716 0.579026 -0.353444 0.734716 0.579026 -0.353444 0.734716 
0.842256 -0.539051 -0.00528478 0.842256 -0.539051 -0.00528478 0.842256 -0.539051 -0.00528478 
0.90745 -0.370905 0.197394 0.90745 -0.370905 0.197394 0.90745 -0.370905 0.197394 
0.827183 -0.338097 0.448843 0.827183 -0.338097 0.448843 0.827183 -0.338097 0.448843 
-0.690238 0.616106 -0.379453 -0.690238 0.616106 -0.379453 -0.690238 0.616106 -0.379453 
-0.742499 0.662754 -0.0972293 -0.742499 0.662754 -0.0972293 -0.742499 0.662754 -0.0972293 
-0.568748 0.394243 -0.721871 -0.568748 0.394243 -0.721871 -0.568748 0.394243 -0.721871 
-0.347003 0.122285 -0.929858 -0.347003 0.122285 -0.929858 -0.347003 0.122285 -0.929858 
-0.555256 0.320702 0.76736 -0.555256 0.320702 0.76736 -0.555256 0.320702 0.76736 
-0.205851 -0.00146657 -0.978582 -0.205851 -0.00146657 -0.978582 -0.205851 -0.00146657 -0.978582 
0.347813 -0.319762 -0.88135 0.347813 -0.319762 -0.88135 0.347813 -0.319762 -0.88135 
-0.151161 0.123727 0.980735 -0.151161 0.123727 0.980735 -0.151161 0.123727 0.980735 
0.580669 -0.431725 -0.690244 0.580669 -0.431725 -0.690244 0.580669 -0.431725 -0.690244 
0.0828685 -0.0511947 0.995245 0.0828685 -0.0511947 0.995245 0.0828685 -0.0511947 0.995245 
0.763183 -0.460769 -0.453038 0.763183 -0.460769 -0.453038 0.763183 -0.460769 -0.453038 
0.92394 -0.342622 -0.170135 0.92394 -0.342622 -0.170135 0.92394 -0.342622 -0.170135 
0.904683 -0.374099 -0.203959 0.904683 -0.374099 -0.203959 0.904683 -0.374099 -0.203959 
-0.569821 0.394899 -0.720666 -0.569821 0.394899 -0.720666 -0.569821 0.394899 -0.720666 
-0.273191 0.0697514 -0.959428 -0.273191 0.0697514 -0.959428 -0.273191 0.0697514 -0.959428 
-0.502851 0.305468 0.808597 -0.502851 0.305468 0.808597 -0.502851 0.305468 0.808597 
0.170185 -0.214913 -0.961691 0.170185 -0.214913 -0.961691 0.170185 -0.214913 -0.961691 
-0.495758 0.302306 0.814147 -0.495758 0.302306 0.814147 -0.495758 0.302306 0.814147 
-0.354415 0.208299 0.911593 -0.354415 0.208299 0.911593 -0.354415 0.208299 0.911593 
0.4052 -0.357394 -0.841476 0.4052 -0.357394 -0.841476 0.4052 -0.357394 -0.841476 
0.601972 -0.412445 -0.683753 0.601972 -0.412445 -0.683753 0.601972 -0.412445 -0.683753 
0.731963 -0.397245 -0.553558 0.731963 -0.397245 -0.553558 0.731963 -0.397245 -0.553558 
0.924414 -0.342798 0.167176 0.924414 -0.342798 0.167176 0.924414 -0.342798 0.167176 
-0.65265 0.711461 0.26052 -0.65265 0.711461 0.26052 -0.65265 0.711461 0.26052 
-0.630779 0.565597 0.531241 -0.630779 0.565597 0.531241 -0.630779 0.565597 0.531241 
-0.595726 0.36167 -0.717151 -0.595726 0.36167 -0.717151 -0.595726 0.36167 -0.717151 
-0.549565 0.492775 0.674649 -0.549565 0.492775 0.674649 -0.549565 0.492775 0.674649 
-0.123978 -0.145131 -0.981614 -0.123978 -0.145131 -0.981614 -0.123978 -0.145131 -0.981614 
0.273671 0.0148993 0.961708 0.273671 0.0148993 0.961708 0.273671 0.0148993 0.961708 
0.712647 -0.449074 -0.53895 0.712647 -0.449074 -0.53895 0.712647 -0.449074 -0.53895 
0.649882 -0.0831561 0.755472 0.649882 -0.0831561 0.755472 0.649882 -0.0831561 0.755472 
0.616677 -0.08613 0.78249 0.616677 -0.08613 0.78249 0.616677 -0.08613 0.78249 
0.909394 -0.380736 -0.167457 0.909394 -0.380736 -0.167457 0.909394 -0.380736 -0.167457 
0.891135 -0.204423 0.40508 0.891135 -0.204423 0.40508 0.891135 -0.204423 0.40508 
0.793217 -0.181961 0.581117 0.793217 -0.181961 0.581117 0.793217 -0.181961 0.581117 
-0.642886 0.700817 0.309119 -0.642886 0.700817 0.309119 -0.642886 0.700817 0.309119 
-0.344785 0.733692 0.585507 -0.344785 0.733692 0.585507 -0.344785 0.733692 0.585507 
-0.513203 0.338539 -0.788678 -0.513203 0.338539 -0.788678 -0.513203 0.338539 -0.788678 
-0.273337 0.0616312 -0.959942 -0.273337 0.0616312 -0.959942 -0.273337 0.0616312 -0.959942 
-0.125051 0.0635682 -0.990112 -0.125051 0.0635682 -0.990112 -0.125051 0.0635682 -0.990112 
-0.453459 0.349938 0.819706 -0.453459 0.349938 0.819706 -0.453459 0.349938 0.819706 
0.255657 -0.0466765 -0.96564 0.255657 -0.0466765 -0.96564 0.255657 -0.0466765 -0.96564 
-0.188182 0.174079 0.966584 -0.188182 0.174079 0.966584 -0.188182 0.174079 0.966584 
0.478539 -0.30804 -0.82226 0.478539 -0.30804 -0.82226 0.478539 -0.30804 -0.82226 
0.590297 -0.355544 -0.724664 0.590297 -0.355544 -0.724664 0.590297 -0.355544 -0.724664 
-0.626625 0.558591 0.543431 -0.626625 0.558591 0.543431 -0.626625 0.558591 0.543431 
-0.510525 0.455096 0.729556 -0.510525 0.455096 0.729556 -0.510525 0.455096 0.729556 
-0.112107 0.0765985 -0.990739 -0.112107 0.0765985 -0.990739 -0.112107 0.0765985 -0.990739 
-0.429272 0.347888 0.833486 -0.429272 0.347888 0.833486 -0.429272 0.347888 0.833486 
0.0822974 -0.0929517 -0.992264 0.0822974 -0.0929517 -0.992264 0.0822974 -0.0929517 -0.992264 
0.296578 -0.232899 -0.926175 0.296578 -0.232899 -0.926175 0.296578 -0.232899 -0.926175 
-0.151562 0.27137 0.950467 -0.151562 0.27137 0.950467 -0.151562 0.27137 0.950467 
0.165083 0.23 0.959087 0.165083 0.23 0.959087 0.165083 0.23 0.959087 
0.235396 0.176185 0.955797 0.235396 0.176185 0.955797 0.235396 0.176185 0.955797 
0.86791 -0.343248 -0.359045 0.86791 -0.343248 -0.359045 0.86791 -0.343248 -0.359045 
0.8599 -0.26408 -0.436845 0.8599 -0.26408 -0.436845 0.8599 -0.26408 -0.436845 
-0.62597 0.723468 -0.291126 -0.62597 0.723468 -0.291126 -0.62597 0.723468 -0.291126 
-0.61694 0.785882 -0.0421181 -0.61694 0.785882 -0.0421181 -0.61694 0.785882 -0.0421181 
-0.627221 0.724914 -0.284771 -0.627221 0.724914 -0.284771 -0.627221 0.724914 -0.284771 
-0.638659 0.707772 0.301949 -0.638659 0.707772 0.301949 -0.638659 0.707772 0.301949 
-0.634181 0.702809 0.322296 -0.634181 0.702809 0.322296 -0.634181 0.702809 0.322296 
-0.637961 0.500155 0.585535 -0.637961 0.500155 0.585535 -0.637961 0.500155 0.585535 
-0.584614 0.429399 0.688362 -0.584614 0.429399 0.688362 -0.584614 0.429399 0.688362 
-0.461307 0.312904 0.830233 -0.461307 0.312904 0.830233 -0.461307 0.312904 0.830233 
-0.217058 0.355444 0.909146 -0.217058 0.355444 0.909146 -0.217058 0.355444 0.909146 
0.694004 -0.234505 -0.68071 0.694004 -0.234505 -0.68071 0.694004 -0.234505 -0.68071 
0.949901 -0.0830641 0.301312 0.949901 -0.0830641 0.301312 0.949901 -0.0830641 0.301312 
0.539969 -0.0281753 0.841213 0.539969 -0.0281753 0.841213 0.539969 -0.0281753 0.841213 
0.652118 0.00835439 0.758071 0.652118 0.00835439 0.758071 0.652118 0.00835439 0.758071 
0.95524 -0.294902 -0.0234483 0.95524 -0.294902 -0.0234483 0.95524 -0.294902 -0.0234483 
0.844507 -0.120554 0.521799 0.844507 -0.120554 0.521799 0.844507 -0.120554 0.521799 
-0.406017 0.525723 -0.747507 -0.406017 0.525723 -0.747507 -0.406017 0.525723 -0.747507 
-0.564233 0.730586 -0.384557 -0.564233 0.730586 -0.384557 -0.564233 0.730586 -0.384557 
-0.72057 0.523201 0.455016 -0.72057 0.523201 0.455016 -0.72057 0.523201 0.455016 
-0.580891 0.455413 0.674659 -0.580891 0.455413 0.674659 -0.580891 0.455413 0.674659 
0.100509 -0.0391072 -0.994167 0.100509 -0.0391072 -0.994167 0.100509 -0.0391072 -0.994167 
-0.221147 0.305149 0.926271 -0.221147 0.305149 0.926271 -0.221147 0.305149 0.926271 
0.502981 0.00832929 -0.864257 0.502981 0.00832929 -0.864257 0.502981 0.00832929 -0.864257 
0.236648 0.143895 0.960881 0.236648 0.143895 0.960881 0.236648 0.143895 0.960881 
0.670193 -0.325429 -0.667036 0.670193 -0.325429 -0.667036 0.670193 -0.325429 -0.667036 
0.655693 -0.327438 -0.680332 0.655693 -0.327438 -0.680332 0.655693 -0.327438 -0.680332 
0.917562 -0.389421 0.0801961 0.917562 -0.389421 0.0801961 0.917562 -0.389421 0.0801961 
-0.549709 0.510986 -0.660843 -0.549709 0.510986 -0.660843 -0.549709 0.510986 -0.660843 
-0.759339 0.648627 -0.0518396 -0.759339 0.648627 -0.0518396 -0.759339 0.648627 -0.0518396 
-0.72359 0.672618 -0.15493 -0.72359 0.672618 -0.15493 -0.72359 0.672618 -0.15493 
-0.208907 0.390915 -0.896406 -0.208907 0.390915 -0.896406 -0.208907 0.390915 -0.896406 
-0.510759 0.483398 0.710951 -0.510759 0.483398 0.710951 -0.510759 0.483398 0.710951 
-0.00236631 -0.0135345 -0.999906 -0.00236631 -0.0135345 -0.999906 -0.00236631 -0.0135345 -0.999906 
0.742675 -0.338397 0.577859 0.742675 -0.338397 0.577859 0.742675 -0.338397 0.577859 
-0.696294 0.7004 0.156891 -0.696294 0.7004 0.156891 -0.696294 0.7004 0.156891 
0.0808949 -0.0127864 -0.996641 0.0808949 -0.0127864 -0.996641 0.0808949 -0.0127864 -0.996641 
-0.429534 0.360981 -0.827764 -0.429534 0.360981 -0.827764 -0.429534 0.360981 -0.827764 
-0.530313 0.454899 0.715427 -0.530313 0.454899 0.715427 -0.530313 0.454899 0.715427 
-0.41761 0.443803 0.792869 -0.41761 0.443803 0.792869 -0.41761 0.443803 0.792869 
-0.313272 0.394894 0.863666 -0.313272 0.394894 0.863666 -0.313272 0.394894 0.863666 
-0.107642 0.311078 0.944269 -0.107642 0.311078 0.944269 -0.107642 0.311078 0.944269 
0.421791 -0.248159 -0.872072 0.421791 -0.248159 -0.872072 0.421791 -0.248159 -0.872072 
0.575697 -0.276948 -0.769333 0.575697 -0.276948 -0.769333 0.575697 -0.276948 -0.769333 
0.107106 0.0330402 0.993699 0.107106 0.0330402 0.993699 0.107106 0.0330402 0.993699 
0.412734 0.134899 0.900807 0.412734 0.134899 0.900807 0.412734 0.134899 0.900807 