# vtk DataFile Version 4.2
3D Slicer output. SPACE=LPS
ASCII
DATASET POLYDATA
POINTS 2508 double
2.4738430977 -3.4808521271 -0.32310390472 2.4738430977 -2.7899665833 -1.1689805984 6.5944871902 -3.5822134018 -0.56414794922 
2.4738430977 -3.4808521271 -0.32310390472 5.7703580856 -4.2624340057 1.3686485291 1.6497144699 -2.8672013283 0.52277183533 
6.5944871902 -3.5822134018 -0.56414794922 6.5944871902 -4.289917469 0.52277183533 2.4738430977 -3.4808521271 -0.32310390472 
6.5944871902 -4.289917469 0.52277183533 5.7703580856 -4.2624340057 1.3686485291 2.4738430977 -3.4808521271 -0.32310390472 
6.5944871902 -4.289917469 0.52277183533 8.2427444458 -4.3017187119 1.3686485291 5.7703580856 -4.2624340057 1.3686485291 
8.2427444458 -4.3017187119 1.3686485291 8.2427444458 -4.2737541199 2.2145252228 5.7703580856 -4.2624340057 1.3686485291 
8.2427444458 -3.8214178085 3.0604009628 2.4738430977 -2.7533092499 1.3284053802 5.7703580856 -4.2624340057 1.3686485291 
8.2427444458 -3.8214178085 3.0604009628 5.7703580856 -4.2624340057 1.3686485291 8.2427444458 -4.2737541199 2.2145252228 
6.5944871902 -3.5822134018 -0.56414794922 8.2427444458 -3.2909340858 -0.32310390472 6.5944871902 -4.289917469 0.52277183533 
8.2427444458 -3.2909340858 -0.32310390472 8.2427444458 -4.3017187119 1.3686485291 6.5944871902 -4.289917469 0.52277183533 
8.2427444458 -3.2909340858 -0.32310390472 10.715130806 -2.5670509338 0.52277183533 8.2427444458 -4.3017187119 1.3686485291 
8.2427444458 -4.2737541199 2.2145252228 9.891002655 -3.464840889 3.0604009628 8.2427444458 -3.8214178085 3.0604009628 
8.2427444458 -4.3017187119 1.3686485291 10.715130806 -2.5670509338 0.52277183533 10.715130806 -3.2664079666 2.2145252228 
10.715130806 -3.2664079666 2.2145252228 8.2427444458 -4.2737541199 2.2145252228 8.2427444458 -4.3017187119 1.3686485291 
0.27933645248 -0.26659679413 -0.32310390472 2.4738430977 -3.4808521271 -0.32310390472 1.6497144699 -2.8672013283 0.52277183533 
2.4738430977 -3.4808521271 -0.32310390472 1.6497144699 -2.2474937439 -1.1689805984 2.4738430977 -2.7899665833 -1.1689805984 
5.7703580856 -4.2624340057 1.3686485291 2.4738430977 -2.7533092499 1.3284053802 1.6497144699 -2.8672013283 0.52277183533 
5.7703580856 -1.924405098 -1.8260135651 6.5944871902 -3.5822134018 -0.56414794922 2.4738430977 -2.7899665833 -1.1689805984 
8.2427444458 -3.8214178085 3.0604009628 6.5944871902 -2.7533092499 3.4334974289 2.4738430977 -2.7533092499 1.3284053802 
6.5944871902 -2.7533092499 3.4334974289 8.2427444458 -3.8214178085 3.0604009628 7.4186162949 -2.7533092499 3.7706422806 
9.891002655 -3.464840889 3.0604009628 7.4186162949 -2.7533092499 3.7706422806 8.2427444458 -3.8214178085 3.0604009628 
7.4186162949 -2.7533092499 3.7706422806 9.891002655 -3.464840889 3.0604009628 10.715130806 -1.095500946 4.9022989273 
10.715130806 -3.2664079666 2.2145252228 9.891002655 -3.464840889 3.0604009628 8.2427444458 -4.2737541199 2.2145252228 
10.715130806 -3.2664079666 2.2145252228 10.715130806 -2.5670509338 0.52277183533 13.18751812 -1.6616864204 2.2145252228 
1.6497144699 -2.2474937439 -1.1689805984 2.4738430977 -3.4808521271 -0.32310390472 0.27933645248 -0.26659679413 -0.32310390472 
1.6497144699 -2.8672013283 0.52277183533 0.72306680679 -1.095500946 0.52277183533 0.27933645248 -0.26659679413 -0.32310390472 
1.6497144699 -2.8672013283 0.52277183533 1.6497144699 -1.924405098 1.2989234924 0.72306680679 -1.095500946 0.52277183533 
2.4738430977 -2.7899665833 -1.1689805984 1.6497144699 -2.2474937439 -1.1689805984 2.4738430977 -1.924405098 -1.6368103027 
1.6497144699 -1.924405098 1.2989234924 1.6497144699 -2.8672013283 0.52277183533 2.4738430977 -2.7533092499 1.3284053802 
5.7703580856 -1.924405098 -1.8260135651 2.4738430977 -2.7899665833 -1.1689805984 2.4738430977 -1.924405098 -1.6368103027 
1.6497144699 -1.924405098 1.2989234924 2.4738430977 -2.7533092499 1.3284053802 6.5944871902 -2.7533092499 3.4334974289 
9.0668735504 -1.924405098 -1.0847816467 6.5944871902 -3.5822134018 -0.56414794922 5.7703580856 -1.924405098 -1.8260135651 
8.2427444458 -3.2909340858 -0.32310390472 6.5944871902 -3.5822134018 -0.56414794922 9.0668735504 -1.924405098 -1.0847816467 
9.0668735504 -1.924405098 -1.0847816467 10.715130806 -2.5670509338 0.52277183533 8.2427444458 -3.2909340858 -0.32310390472 
9.0668735504 -1.924405098 -1.0847816467 12.363389015 -0.3611125946 -0.32310390472 10.715130806 -2.5670509338 0.52277183533 
10.715130806 -1.095500946 4.9022989273 9.891002655 -3.464840889 3.0604009628 12.363389015 -1.1611504555 4.7521543503 
13.18751812 -1.6616864204 2.2145252228 14.011647224 -0.98436546326 3.9062776566 10.715130806 -3.2664079666 2.2145252228 
9.891002655 -3.464840889 3.0604009628 10.715130806 -3.2664079666 2.2145252228 12.363389015 -1.1611504555 4.7521543503 
10.715130806 -3.2664079666 2.2145252228 14.011647224 -0.98436546326 3.9062776566 12.363389015 -1.1611504555 4.7521543503 
1.6497144699 -1.924405098 1.2989234924 1.6497144699 -0.26659679413 1.6979169846 0.72306680679 -1.095500946 0.52277183533 
1.6497144699 -0.26659679413 1.6979169846 1.6497144699 -1.924405098 1.2989234924 6.5944871902 -1.095500946 3.972205162 
5.7703580856 -1.924405098 -1.8260135651 2.4738430977 -1.924405098 -1.6368103027 6.5944871902 1.3912124634 -2.8423786163 
6.5944871902 -1.095500946 3.972205162 1.6497144699 -1.924405098 1.2989234924 6.5944871902 -2.7533092499 3.4334974289 
6.5944871902 -1.095500946 3.972205162 6.5944871902 -2.7533092499 3.4334974289 7.4186162949 -2.7533092499 3.7706422806 
9.0668735504 -0.26659679413 -2.0243749619 9.0668735504 -1.924405098 -1.0847816467 5.7703580856 -1.924405098 -1.8260135651 
9.0668735504 -1.924405098 -1.0847816467 9.0668735504 -0.26659679413 -2.0243749619 9.891002655 -1.095500946 -1.2711029053 
9.891002655 -1.095500946 -1.2711029053 12.363389015 -0.3611125946 -0.32310390472 9.0668735504 -1.924405098 -1.0847816467 
12.363389015 -0.3611125946 -0.32310390472 13.18751812 -1.6616864204 2.2145252228 10.715130806 -2.5670509338 0.52277183533 
14.011647224 -0.98436546326 3.9062776566 13.18751812 -0.26659679413 5.1454877853 12.363389015 -1.1611504555 4.7521543503 
1.6497144699 0.56230735779 -1.79114151 1.6497144699 -2.2474937439 -1.1689805984 0.27933645248 -0.26659679413 -0.32310390472 
0.72306680679 -1.095500946 0.52277183533 0.52621793747 0.56230735779 0.52277183533 0.27933645248 -0.26659679413 -0.32310390472 
0.52621793747 0.56230735779 0.52277183533 0.72306680679 -1.095500946 0.52277183533 1.6497144699 -0.26659679413 1.6979169846 
2.4738430977 -1.924405098 -1.6368103027 1.6497144699 -2.2474937439 -1.1689805984 1.6497144699 0.56230735779 -1.79114151 
1.6497144699 0.56230735779 -1.79114151 6.5944871902 1.3912124634 -2.8423786163 2.4738430977 -1.924405098 -1.6368103027 
7.4186162949 -2.7533092499 3.7706422806 7.4186162949 0.56230735779 4.4053258896 6.5944871902 -1.095500946 3.972205162 
5.7703580856 -1.924405098 -1.8260135651 8.2427444458 1.3912124634 -2.7752103806 9.0668735504 -0.26659679413 -2.0243749619 
7.4186162949 0.56230735779 4.4053258896 7.4186162949 -2.7533092499 3.7706422806 10.715130806 -1.095500946 4.9022989273 
7.4186162949 0.56230735779 4.4053258896 10.715130806 -1.095500946 4.9022989273 11.539259911 1.3912124634 5.5486879349 
13.18751812 -0.26659679413 5.1454877853 10.715130806 -1.095500946 4.9022989273 12.363389015 -1.1611504555 4.7521543503 
13.18751812 -1.6616864204 2.2145252228 12.363389015 -0.3611125946 -0.32310390472 15.659903526 1.5180425644 1.3686485291 
13.18751812 -1.6616864204 2.2145252228 15.495625496 0.56230735779 3.0604009628 14.011647224 -0.98436546326 3.9062776566 
15.495625496 0.56230735779 3.0604009628 13.18751812 -1.6616864204 2.2145252228 15.659903526 1.5180425644 1.3686485291 
14.835774422 1.3912124634 5.1781015396 13.18751812 -0.26659679413 5.1454877853 14.011647224 -0.98436546326 3.9062776566 
6.5944871902 1.3912124634 -2.8423786163 1.6497144699 0.56230735779 -1.79114151 4.1221008301 2.2201166153 -2.3623952866 
6.5944871902 -1.095500946 3.972205162 6.5944871902 2.2201166153 3.8660230637 1.6497144699 -0.26659679413 1.6979169846 
6.5944871902 2.2201166153 3.8660230637 6.5944871902 -1.095500946 3.972205162 7.4186162949 0.56230735779 4.4053258896 
8.2427444458 1.3912124634 -2.7752103806 5.7703580856 -1.924405098 -1.8260135651 6.5944871902 1.3912124634 -2.8423786163 
11.539259911 1.3912124634 5.5486879349 10.715130806 2.2201166153 5.365231514 7.4186162949 0.56230735779 4.4053258896 
9.0668735504 -0.26659679413 -2.0243749619 14.011647224 3.8779249191 -1.8203458786 9.891002655 -1.095500946 -1.2711029053 
13.18751812 -0.26659679413 5.1454877853 11.539259911 1.3912124634 5.5486879349 10.715130806 -1.095500946 4.9022989273 
15.495625496 0.56230735779 3.0604009628 15.396174431 0.56230735779 3.9062776566 14.011647224 -0.98436546326 3.9062776566 
15.396174431 0.56230735779 3.9062776566 14.835774422 1.3912124634 5.1781015396 14.011647224 -0.98436546326 3.9062776566 
0.52621793747 0.56230735779 0.52277183533 1.6497144699 -0.26659679413 1.6979169846 1.61795187 2.2201166153 1.3686485291 
1.61795187 2.2201166153 1.3686485291 1.6497144699 -0.26659679413 1.6979169846 6.5944871902 2.2201166153 3.8660230637 
14.011647224 3.8779249191 -1.8203458786 9.0668735504 -0.26659679413 -2.0243749619 8.2427444458 1.3912124634 -2.7752103806 
14.011647224 3.8779249191 -1.8203458786 12.363389015 -0.3611125946 -0.32310390472 9.891002655 -1.095500946 -1.2711029053 
11.539259911 1.3912124634 5.5486879349 13.18751812 -0.26659679413 5.1454877853 13.18751812 2.2201166153 5.6894769669 
12.363389015 -0.3611125946 -0.32310390472 14.835774422 2.3077783585 -0.32310390472 15.659903526 1.5180425644 1.3686485291 
13.18751812 -0.26659679413 5.1454877853 14.835774422 1.3912124634 5.1781015396 13.18751812 2.2201166153 5.6894769669 
0.27933645248 -0.26659679413 -0.32310390472 1.6497144699 2.7610635757 -1.1689805984 1.6497144699 0.56230735779 -1.79114151 
4.1221008301 2.2201166153 -2.3623952866 1.6497144699 0.56230735779 -1.79114151 1.6497144699 2.7610635757 -1.1689805984 
[...]
CELL_DATA 836
FIELD FieldData 1
GroupIds 1 836 float
0 0 0 0 0 0 0 0 0 
0 0 0 0 0 0 0 0 0 
0 0 0 0 0 0 0 0 0 
0 0 0 0 0 0 0 0 0 
0 0 0 0 0 0 0 0 0 
0 0 0 0 0 0 0 0 0 
0 0 0 0 0 0 0 0 0 
0 0 0 0 0 0 0 0 0 
0 0 0 0 0 0 0 0 0 
0 0 0 0 0 0 0 0 0 
0 0 0 0 0 0 0 0 0 
0 0 0 0 0 0 0 0 0 
0 0 0 0 0 0 0 0 0 
0 0 0 0 0 0 0 0 0 
0 0 0 0 0 0 0 0 0 
0 0 0 0 0 0 0 0 0 
0 0 0 0 0 0 0 0 0 
0 0 0 0 0 0 0 0 0 
0 0 0 0 0 0 0 0 0 
0 0 0 0 0 0 0 0 0 
0 0 0 0 0 0 0 0 0 
0 0 0 0 0 0 0 0 0 
0 0 0 0 0 0 0 0 0 
0 0 0 0 0 0 0 0 0 
0 0 0 0 0 0 0 0 0 
0 0 0 0 0 0 0 0 0 
0 0 0 0 0 0 0 0 0 
0 0 0 0 0 0 0 0 0 
0 0 0 0 0 0 0 0 0 
0 0 0 0 0 0 0 0 0 
0 0 0 0 0 0 0 0 0 
0 0 0 0 0 0 0 0 0 
0 0 0 0 0 0 0 0 0 
0 0 0 0 0 0 0 0 0 
0 0 0 0 0 0 0 0 0 
0 0 0 0 0 0 0 0 0 
0 0 0 0 0 0 0 0 0 
0 0 0 0 0 0 0 0 0 
0 0 0 0 0 0 0 0 0 
0 0 0 0 0 0 0 0 0 
0 0 0 0 0 0 0 0 0 
0 0 0 0 0 0 0 0 0 
0 0 0 0 0 0 0 0 0 
0 0 0 0 0 0 0 0 0 
0 0 0 0 0 0 0 0 0 
0 0 0 0 0 0 0 0 0 
0 0 0 0 0 0 0 0 0 
0 0 0 0 0 0 0 0 0 
0 0 0 0 0 0 0 0 0 
0 0 0 0 0 0 0 0 0 
0 0 0 0 0 0 0 0 0 
0 0 0 0 0 0 0 0 0 
0 0 0 0 0 0 0 0 0 
0 0 0 0 0 0 0 0 0 
0 0 0 0 0 0 0 0 0 
0 0 0 0 0 0 0 0 0 
0 0 0 0 0 0 0 0 0 
0 0 0 0 0 0 0 0 0 
0 0 0 0 0 0 0 0 0 
0 0 0 0 0 0 0 0 0 
0 0 0 0 0 0 0 0 0 
0 0 0 0 0 0 0 0 0 
0 0 0 0 0 0 0 0 0 
0 0 0 0 0 0 0 0 0 
0 0 0 0 0 0 0 0 0 
0 0 0 0 0 0 0 0 0 
0 0 0 0 0 0 0 0 0 
0 0 0 0 0 0 0 0 0 
0 0 0 0 0 0 0 0 0 
0 0 0 0 0 0 0 0 0 
0 0 0 0 0 0 0 0 0 
0 0 0 0 0 0 0 0 0 
0 0 0 0 0 0 0 0 0 
0 0 0 0 0 0 0 0 0 
0 0 0 0 0 0 0 0 0 
0 0 0 0 0 0 0 0 0 
0 0 0 0 0 0 0 0 0 
0 0 0 0 0 0 0 0 0 
0 0 0 0 0 0 0 0 0 
0 0 0 0 0 0 0 0 0 
0 0 0 0 0 0 0 0 0 
0 0 0 0 0 0 0 0 0 
0 0 0 0 0 0 0 0 0 
0 0 0 0 0 0 0 0 0 
0 0 0 0 0 0 0 0 0 
0 0 0 0 0 0 0 0 0 
0 0 0 0 0 0 0 0 0 
0 0 0 0 0 0 0 0 0 
0 0 0 0 0 0 0 0 0 
0 0 0 0 0 0 0 0 0 
0 0 0 0 0 0 0 0 0 
0 0 0 0 0 0 0 0 0 
0 0 0 0 0 0 0 0 
POINT_DATA 2508
NORMALS Normals float
-0.0559674 -0.77328 -0.63159 -0.0559674 -0.77328 -0.63159 -0.0559674 -0.77328 -0.63159 
-0.359975 -0.886062 0.292084 -0.359975 -0.886062 0.292084 -0.359975 -0.886062 0.292084 
-0.0524598 -0.836865 -0.544891 -0.0524598 -0.836865 -0.544891 -0.0524598 -0.836865 -0.544891 
-0.165406 -0.977701 -0.129387 -0.165406 -0.977701 -0.129387 -0.165406 -0.977701 -0.129387 
-0.0158851 -0.999729 0.0170056 -0.0158851 -0.999729 0.0170056 -0.0158851 -0.999729 0.0170056 
-0.0158787 -0.999328 0.0330377 -0.0158787 -0.999328 0.0330377 -0.0158787 -0.999328 0.0330377 
-0.322628 -0.687393 0.650694 -0.322628 -0.687393 0.650694 -0.322628 -0.687393 0.650694 
-0.163158 -0.870015 0.465245 -0.163158 -0.870015 0.465245 -0.163158 -0.870015 0.465245 
0.222193 -0.81707 -0.532002 0.222193 -0.81707 -0.532002 0.222193 -0.81707 -0.532002 
0.248977 -0.831414 -0.496751 0.248977 -0.831414 -0.496751 0.248977 -0.831414 -0.496751 
0.392559 -0.789536 -0.471731 0.392559 -0.789536 -0.471731 0.392559 -0.789536 -0.471731 
0.187392 -0.86621 0.46321 0.187392 -0.86621 0.46321 0.187392 -0.86621 0.46321 
0.459739 -0.820693 -0.339268 0.459739 -0.820693 -0.339268 0.459739 -0.820693 -0.339268 
0.377145 -0.925649 0.0306018 0.377145 -0.925649 0.0306018 0.377145 -0.925649 0.0306018 
-0.767967 -0.524324 -0.367846 -0.767967 -0.524324 -0.367846 -0.767967 -0.524324 -0.367846 
-0.454185 -0.690002 -0.563572 -0.454185 -0.690002 -0.563572 -0.454185 -0.690002 -0.563572 
-0.368142 -0.79114 0.488436 -0.368142 -0.79114 0.488436 -0.368142 -0.79114 0.488436 
0.000384824 -0.60555 -0.795808 0.000384824 -0.60555 -0.795808 0.000384824 -0.60555 -0.795808 
-0.319588 -0.711694 0.625583 -0.319588 -0.711694 0.625583 -0.319588 -0.711694 0.625583 
-0.280376 -0.672064 0.685361 -0.280376 -0.672064 0.685361 -0.280376 -0.672064 0.685361 
0.106498 -0.49228 0.863898 0.106498 -0.49228 0.863898 0.106498 -0.49228 0.863898 
0.0451138 -0.622858 0.781033 0.0451138 -0.622858 0.781033 0.0451138 -0.622858 0.781033 
0.373127 -0.915786 0.148701 0.373127 -0.915786 0.148701 0.373127 -0.915786 0.148701 
0.514385 -0.792511 -0.327618 0.514385 -0.792511 -0.327618 0.514385 -0.792511 -0.327618 
-0.825746 -0.563771 -0.0175099 -0.825746 -0.563771 -0.0175099 -0.825746 -0.563771 -0.0175099 
-0.886066 -0.463437 0.010675 -0.886066 -0.463437 0.010675 -0.886066 -0.463437 0.010675 
-0.772162 -0.403862 0.490573 -0.772162 -0.403862 0.490573 -0.772162 -0.403862 0.490573 
-0.298694 -0.453778 -0.839564 -0.298694 -0.453778 -0.839564 -0.298694 -0.453778 -0.839564 
-0.554822 -0.52878 0.642312 -0.554822 -0.52878 0.642312 -0.554822 -0.52878 0.642312 
-0.0504275 -0.47488 -0.878605 -0.0504275 -0.47488 -0.878605 -0.0504275 -0.47488 -0.878605 
-0.419348 -0.387736 0.820858 -0.419348 -0.387736 0.820858 -0.419348 -0.387736 0.820858 
0.185313 -0.535193 -0.824153 0.185313 -0.535193 -0.824153 0.185313 -0.535193 -0.824153 
0.216758 -0.571761 -0.791268 0.216758 -0.571761 -0.791268 0.216758 -0.571761 -0.791268 
0.410325 -0.620139 -0.668626 0.410325 -0.620139 -0.668626 0.410325 -0.620139 -0.668626 
0.436056 -0.587285 -0.681874 0.436056 -0.587285 -0.681874 0.436056 -0.587285 -0.681874 
0.0463069 -0.623081 0.780786 0.0463069 -0.623081 0.780786 0.0463069 -0.623081 0.780786 
0.54308 -0.836721 0.0704362 0.54308 -0.836721 0.0704362 0.54308 -0.836721 0.0704362 
0.519307 -0.792385 0.320071 0.519307 -0.792385 0.320071 0.519307 -0.792385 0.320071 
0.328082 -0.820703 0.46777 0.328082 -0.820703 0.46777 0.328082 -0.820703 0.46777 
-0.715322 -0.163514 0.679395 -0.715322 -0.163514 0.679395 -0.715322 -0.163514 0.679395 
-0.437398 -0.210423 0.874302 -0.437398 -0.210423 0.874302 -0.437398 -0.210423 0.874302 
-0.0550067 -0.280111 -0.95839 -0.0550067 -0.280111 -0.95839 -0.0550067 -0.280111 -0.95839 
-0.41967 -0.280513 0.863244 -0.41967 -0.280513 0.863244 -0.41967 -0.280513 0.863244 
-0.36259 -0.288014 0.886328 -0.36259 -0.288014 0.886328 -0.36259 -0.288014 0.886328 
0.19198 -0.483908 -0.853802 0.19198 -0.483908 -0.853802 0.19198 -0.483908 -0.853802 
0.286687 -0.472382 -0.833466 0.286687 -0.472382 -0.833466 0.286687 -0.472382 -0.833466 
0.435942 -0.586811 -0.682354 0.435942 -0.586811 -0.682354 0.435942 -0.586811 -0.682354 
0.581933 -0.631364 -0.512575 0.581933 -0.631364 -0.512575 0.581933 -0.631364 -0.512575 
0.400378 -0.651983 0.643907 0.400378 -0.651983 0.643907 0.400378 -0.651983 0.643907 
-0.675122 -0.159484 -0.72026 -0.675122 -0.159484 -0.72026 -0.675122 -0.159484 -0.72026 
-0.920284 -0.109275 0.375681 -0.920284 -0.109275 0.375681 -0.920284 -0.109275 0.375681 
-0.750587 -0.0891251 0.654733 -0.750587 -0.0891251 0.654733 -0.750587 -0.0891251 0.654733 
-0.424981 -0.195695 -0.883796 -0.424981 -0.195695 -0.883796 -0.424981 -0.195695 -0.883796 
-0.186716 -0.122376 -0.974762 -0.186716 -0.122376 -0.974762 -0.186716 -0.122376 -0.974762 
-0.136686 -0.186244 0.972949 -0.136686 -0.186244 0.972949 -0.136686 -0.186244 0.972949 
0.124102 -0.357527 -0.92562 0.124102 -0.357527 -0.92562 0.124102 -0.357527 -0.92562 
-0.235778 -0.182708 0.954477 -0.235778 -0.182708 0.954477 -0.235778 -0.182708 0.954477 
-0.231029 -0.17234 0.957562 -0.231029 -0.17234 0.957562 -0.231029 -0.17234 0.957562 
0.0632263 -0.44994 0.890818 0.0632263 -0.44994 0.890818 0.0632263 -0.44994 0.890818 
0.608359 -0.608557 -0.509468 0.608359 -0.608557 -0.509468 0.608359 -0.608557 -0.509468 
0.703853 -0.707851 -0.0594787 0.703853 -0.707851 -0.0594787 0.703853 -0.707851 -0.0594787 
0.717075 -0.634372 -0.288749 0.717075 -0.634372 -0.288749 0.717075 -0.634372 -0.288749 
0.526038 -0.535997 0.660296 0.526038 -0.535997 0.660296 0.526038 -0.535997 0.660296 
-0.202049 -0.0359221 -0.978716 -0.202049 -0.0359221 -0.978716 -0.202049 -0.0359221 -0.978716 
-0.413645 0.0291417 0.909972 -0.413645 0.0291417 0.909972 -0.413645 0.0291417 0.909972 
-0.507937 0.0275719 0.860953 -0.507937 0.0275719 0.860953 -0.507937 0.0275719 0.860953 
0.0388204 -0.301665 -0.952623 0.0388204 -0.301665 -0.952623 0.0388204 -0.301665 -0.952623 
-0.25891 -0.0438624 0.964905 -0.25891 -0.0438624 0.964905 -0.25891 -0.0438624 0.964905 
0.368077 -0.397775 -0.840413 0.368077 -0.397775 -0.840413 0.368077 -0.397775 -0.840413 
-0.0122217 -0.247762 0.968744 -0.0122217 -0.247762 0.968744 -0.0122217 -0.247762 0.968744 
0.74224 -0.664427 0.0872664 0.74224 -0.664427 0.0872664 0.74224 -0.664427 0.0872664 
0.59235 -0.530251 0.606594 0.59235 -0.530251 0.606594 0.59235 -0.530251 0.606594 
-0.688925 0.0864905 0.719654 -0.688925 0.0864905 0.719654 -0.688925 0.0864905 0.719654 
-0.445704 0.111909 0.888158 -0.445704 0.111909 0.888158 -0.445704 0.111909 0.888158 
0.273326 -0.28081 -0.920021 0.273326 -0.28081 -0.920021 0.273326 -0.28081 -0.920021 
0.432807 -0.445165 -0.783905 0.432807 -0.445165 -0.783905 0.432807 -0.445165 -0.783905 
0.0240209 -0.213643 0.976617 0.0240209 -0.213643 0.976617 0.0240209 -0.213643 0.976617 
0.608152 -0.563375 -0.55925 0.608152 -0.563375 -0.55925 0.608152 -0.563375 -0.55925 
0.191975 -0.20973 0.958728 0.191975 -0.20973 0.958728 0.191975 -0.20973 0.958728 
-0.767032 0.174691 -0.617369 -0.767032 0.174691 -0.617369 -0.767032 0.174691 -0.617369 
-0.375295 0.252369 -0.891888 -0.375295 0.252369 -0.891888 -0.375295 0.252369 -0.891888 
-0.219749 -0.0931249 -0.971102 -0.219749 -0.0931249 -0.971102 -0.219749 -0.0931249 -0.971102 
-0.338796 0.134506 0.931196 -0.338796 0.134506 0.931196 -0.338796 0.134506 0.931196 
0.489446 -0.453409 -0.744892 0.489446 -0.453409 -0.744892 0.489446 -0.453409 -0.744892 
0.223158 -0.150424 0.963106 0.223158 -0.150424 0.963106 0.223158 -0.150424 0.963106 
0.830168 -0.51607 -0.210934 0.830168 -0.51607 -0.210934 0.830168 -0.51607 -0.210934 
0.870518 -0.481377 0.102348 0.870518 -0.481377 0.102348 0.870518 -0.481377 0.102348 
0.716587 -0.396257 0.574006 0.716587 -0.396257 0.574006 0.716587 -0.396257 0.574006 
0.819648 -0.509531 0.261832 0.819648 -0.509531 0.261832 0.819648 -0.509531 0.261832 
-0.877233 0.290213 -0.382412 -0.877233 0.290213 -0.382412 -0.877233 0.290213 -0.382412 
-0.948948 0.313939 -0.0306752 -0.948948 0.313939 -0.0306752 -0.948948 0.313939 -0.0306752 
-0.909608 0.373101 0.182783 -0.909608 0.373101 0.182783 -0.909608 0.373101 0.182783 
-0.843595 0.346024 0.410627 -0.843595 0.346024 0.410627 -0.843595 0.346024 0.410627 
-0.489358 0.546222 0.679831 -0.489358 0.546222 0.679831 -0.489358 0.546222 0.679831 
0.311949 -0.391229 -0.86581 0.311949 -0.391229 -0.86581 0.311949 -0.391229 -0.86581 
-0.172965 0.0457839 0.983863 -0.172965 0.0457839 0.983863 -0.172965 0.0457839 0.983863 
-0.0861696 0.00212895 0.996278 -0.0861696 0.00212895 0.996278 -0.0861696 0.00212895 0.996278 
0.657065 -0.507804 -0.557137 0.657065 -0.507804 -0.557137 0.657065 -0.507804 -0.557137 
0.839633 -0.482862 -0.248717 0.839633 -0.482862 -0.248717 0.839633 -0.482862 -0.248717 
-0.607725 0.670928 -0.424883 -0.607725 0.670928 -0.424883 -0.607725 0.670928 -0.424883 
-0.33644 0.37143 -0.86536 -0.33644 0.37143 -0.86536 -0.33644 0.37143 -0.86536 
-0.566846 0.233822 -0.789945 -0.566846 0.233822 -0.789945 -0.566846 0.233822 -0.789945 
-0.464896 0.518917 0.717354 -0.464896 0.518917 0.717354 -0.464896 0.518917 0.717354 
-0.292757 0.022333 -0.955926 -0.292757 0.022333 -0.955926 -0.292757 0.022333 -0.955926 
-0.427288 0.304041 0.85146 -0.427288 0.304041 0.85146 -0.427288 0.304041 0.85146 
0.0402369 -0.153157 -0.987382 0.0402369 -0.153157 -0.987382 0.0402369 -0.153157 -0.987382 
-0.0581522 -0.0952967 -0.993749 -0.0581522 -0.0952967 -0.993749 -0.0581522 -0.0952967 -0.993749 
-0.337473 0.160443 0.927561 -0.337473 0.160443 0.927561 -0.337473 0.160443 0.927561 
-0.238219 0.184749 0.953478 -0.238219 0.184749 0.953478 -0.238219 0.184749 0.953478 
-0.00455094 0.0832982 0.996514 -0.00455094 0.0832982 0.996514 -0.00455094 0.0832982 0.996514 
0.504306 -0.442439 -0.741568 0.504306 -0.442439 -0.741568 0.504306 -0.442439 -0.741568 
0.132976 0.0372197 0.99042 0.132976 0.0372197 0.99042 0.132976 0.0372197 0.99042 
0.606696 -0.447817 -0.656795 0.606696 -0.447817 -0.656795 0.606696 -0.447817 -0.656795 
0.648583 -0.478735 -0.591738 0.648583 -0.478735 -0.591738 0.648583 -0.478735 -0.591738 
-0.68046 0.732784 0.00140041 -0.68046 0.732784 0.00140041 -0.68046 0.732784 0.00140041 
-0.470807 0.702937 0.533124 -0.470807 0.702937 0.533124 -0.470807 0.702937 0.533124 
-0.475387 0.485719 0.733542 -0.475387 0.485719 0.733542 -0.475387 0.485719 0.733542 
-0.41905 0.309438 0.853607 -0.41905 0.309438 0.853607 -0.41905 0.309438 0.853607 
-0.419956 0.303047 0.855453 -0.419956 0.303047 0.855453 -0.419956 0.303047 0.855453 
-0.27802 0.223154 0.934295 -0.27802 0.223154 0.934295 -0.27802 0.223154 0.934295 
-0.33696 0.231001 0.912741 -0.33696 0.231001 0.912741 -0.33696 0.231001 0.912741 
-0.112552 0.189016 0.975502 -0.112552 0.189016 0.975502 -0.112552 0.189016 0.975502 
0.172201 0.0569233 0.983416 0.172201 0.0569233 0.983416 0.172201 0.0569233 0.983416 
0.607839 -0.199624 0.768558 0.607839 -0.199624 0.768558 0.607839 -0.199624 0.768558 
0.615722 -0.121595 0.778525 0.615722 -0.121595 0.778525 0.615722 -0.121595 0.778525 
0.864302 -0.442917 -0.238342 0.864302 -0.442917 -0.238342 0.864302 -0.442917 -0.238342 
-0.555076 0.410576 -0.723407 -0.555076 0.410576 -0.723407 -0.555076 0.410576 -0.723407 
-0.793606 0.587011 -0.160025 -0.793606 0.587011 -0.160025 -0.793606 0.587011 -0.160025 
-0.608133 0.654895 -0.448651 -0.608133 0.654895 -0.448651 -0.608133 0.654895 -0.448651 
-0.76961 -0.276957 -0.575322 -0.76961 -0.276957 -0.575322 -0.76961 -0.276957 -0.575322 
-0.134887 0.0197073 -0.990665 -0.134887 0.0197073 -0.990665 -0.134887 0.0197073 -0.990665 
-0.425869 0.385633 0.818489 -0.425869 0.385633 0.818489 -0.425869 0.385633 0.818489 
-0.444814 0.447281 0.775938 -0.444814 0.447281 0.775938 -0.444814 0.447281 0.775938 
0.124311 -0.168472 -0.977836 0.124311 -0.168472 -0.977836 0.124311 -0.168472 -0.977836 
0.147401 -0.187159 -0.971208 0.147401 -0.187159 -0.971208 0.147401 -0.187159 -0.971208 
0.432526 -0.173595 -0.884752 0.432526 -0.173595 -0.884752 0.432526 -0.173595 -0.884752 
0.411639 -0.33765 -0.84649 0.411639 -0.33765 -0.84649 0.411639 -0.33765 -0.84649 
0.525166 -0.0757951 0.847618 0.525166 -0.0757951 0.847618 0.525166 -0.0757951 0.847618 
0.936502 -0.301211 0.179546 0.936502 -0.301211 0.179546 0.936502 -0.301211 0.179546 
0.910789 -0.292941 0.290946 0.910789 -0.292941 0.290946 0.910789 -0.292941 0.290946 
0.855635 -0.226162 0.465553 0.855635 -0.226162 0.465553 0.855635 -0.226162 0.465553 
-0.602258 0.784699 -0.146741 -0.602258 0.784699 -0.146741 -0.602258 0.784699 -0.146741 
-0.540054 0.703651 0.461754 -0.540054 0.703651 0.461754 -0.540054 0.703651 0.461754 
-0.546445 0.683435 0.48406 -0.546445 0.683435 0.48406 -0.546445 0.683435 0.48406 
-0.486615 0.541773 0.685338 -0.486615 0.541773 0.685338 -0.486615 0.541773 0.685338 
-0.232789 0.0861446 -0.968704 -0.232789 0.0861446 -0.968704 -0.232789 0.0861446 -0.968704 
0.0981607 -0.0592863 -0.993403 0.0981607 -0.0592863 -0.993403 0.0981607 -0.0592863 -0.993403 
-0.0269587 0.127146 -0.991518 -0.0269587 0.127146 -0.991518 -0.0269587 0.127146 -0.991518 
-0.354906 0.312182 0.88124 -0.354906 0.312182 0.88124 -0.354906 0.312182 0.88124 
-0.377463 0.325872 0.866792 -0.377463 0.325872 0.866792 -0.377463 0.325872 0.866792 
-0.249349 0.319094 0.914332 -0.249349 0.319094 0.914332 -0.249349 0.319094 0.914332 
0.264153 -0.182505 -0.947056 0.264153 -0.182505 -0.947056 0.264153 -0.182505 -0.947056 
-0.0814976 0.246611 0.965682 -0.0814976 0.246611 0.965682 -0.0814976 0.246611 0.965682 
0.103495 0.190611 0.976195 0.103495 0.190611 0.976195 0.103495 0.190611 0.976195 
-0.0771409 0.248052 0.965671 -0.0771409 0.248052 0.965671 -0.0771409 0.248052 0.965671 
0.433947 -0.326576 -0.839665 0.433947 -0.326576 -0.839665 0.433947 -0.326576 -0.839665 
-0.584912 0.683147 -0.437251 -0.584912 0.683147 -0.437251 -0.584912 0.683147 -0.437251 
-0.649722 0.758841 0.0449727 -0.649722 0.758841 0.0449727 -0.649722 0.758841 0.0449727 
-0.330997 0.397258 -0.855936 -0.330997 0.397258 -0.855936 -0.330997 0.397258 -0.855936 
-0.605715 0.6253 0.492046 -0.605715 0.6253 0.492046 -0.605715 0.6253 0.492046 
-0.434276 0.435135 -0.788709 -0.434276 0.435135 -0.788709 -0.434276 0.435135 -0.788709 
-0.44973 0.426944 0.784514 -0.44973 0.426944 0.784514 -0.44973 0.426944 0.784514 
-0.0672765 0.286767 -0.955635 -0.0672765 0.286767 -0.955635 -0.0672765 0.286767 -0.955635 
-0.365963 0.399785 0.840383 -0.365963 0.399785 0.840383 -0.365963 0.399785 0.840383 
0.578216 -0.36315 -0.730608 0.578216 -0.36315 -0.730608 0.578216 -0.36315 -0.730608 
0.622782 -0.391141 -0.677607 0.622782 -0.391141 -0.677607 0.622782 -0.391141 -0.677607 
0.526532 0.023824 0.849822 0.526532 0.023824 0.849822 0.526532 0.023824 0.849822 
0.689401 -0.40108 -0.603209 0.689401 -0.40108 -0.603209 0.689401 -0.40108 -0.603209 
0.722672 -0.420436 -0.548615 0.722672 -0.420436 -0.548615 0.722672 -0.420436 -0.548615 
0.821906 -0.064329 0.565979 0.821906 -0.064329 0.565979 0.821906 -0.064329 0.565979 
-0.610729 0.685367 -0.396588 -0.610729 0.685367 -0.396588 -0.610729 0.685367 -0.396588 
-0.329498 0.504044 -0.798355 -0.329498 0.504044 -0.798355 -0.329498 0.504044 -0.798355 
-0.509198 0.525662 0.681467 -0.509198 0.525662 0.681467 -0.509198 0.525662 0.681467 
-0.481086 0.518173 0.707144 -0.481086 0.518173 0.707144 -0.481086 0.518173 0.707144 
0.153162 -0.00377919 -0.988194 0.153162 -0.00377919 -0.988194 0.153162 -0.00377919 -0.988194 
0.0762216 -0.00381319 -0.997084 0.0762216 -0.00381319 -0.997084 0.0762216 -0.00381319 -0.997084 
0.268741 -0.199171 -0.942395 0.268741 -0.199171 -0.942395 0.268741 -0.199171 -0.942395 
0.242162 -0.226149 -0.943512 0.242162 -0.226149 -0.943512 0.242162 -0.226149 -0.943512 
0.447475 -0.353738 -0.821362 0.447475 -0.353738 -0.821362 0.447475 -0.353738 -0.821362 
0.540186 0.00172129 0.841544 0.540186 0.00172129 0.841544 0.540186 0.00172129 0.841544 
0.904337 0.161567 0.395057 0.904337 0.161567 0.395057 0.904337 0.161567 0.395057 
-0.32112 0.579126 -0.74933 -0.32112 0.579126 -0.74933 -0.32112 0.579126 -0.74933 
-0.482375 0.733203 -0.479299 -0.482375 0.733203 -0.479299 -0.482375 0.733203 -0.479299 
-0.47368 0.854261 -0.214161 -0.47368 0.854261 -0.214161 -0.47368 0.854261 -0.214161 
-0.548948 0.834392 0.0494502 -0.548948 0.834392 0.0494502 -0.548948 0.834392 0.0494502 
-0.580604 0.794168 -0.179435 -0.580604 0.794168 -0.179435 -0.580604 0.794168 -0.179435 
-0.552841 0.756192 0.350058 -0.552841 0.756192 0.350058 -0.552841 0.756192 0.350058 
-0.486155 0.534384 -0.691438 -0.486155 0.534384 -0.691438 -0.486155 0.534384 -0.691438 
-0.126986 0.182567 -0.974958 -0.126986 0.182567 -0.974958 -0.126986 0.182567 -0.974958 
-0.472709 0.528817 0.704911 -0.472709 0.528817 0.704911 -0.472709 0.528817 0.704911 
-0.382805 0.170037 -0.908046 -0.382805 0.170037 -0.908046 -0.382805 0.170037 -0.908046 
-0.204417 -0.278161 -0.938531 -0.204417 -0.278161 -0.938531 -0.204417 -0.278161 -0.938531 
-0.21481 0.419558 0.881946 -0.21481 0.419558 0.881946 -0.21481 0.419558 0.881946 
-0.318427 0.474571 0.820601 -0.318427 0.474571 0.820601 -0.318427 0.474571 0.820601 
0.0458093 -0.162627 -0.985624 0.0458093 -0.162627 -0.985624 0.0458093 -0.162627 -0.985624 
0.265781 -0.263699 -0.927267 0.265781 -0.263699 -0.927267 0.265781 -0.263699 -0.927267 
0.210096 0.239568 0.947875 0.210096 0.239568 0.947875 0.210096 0.239568 0.947875 
0.649757 -0.0338228 0.759389 0.649757 -0.0338228 0.759389 0.649757 -0.0338228 0.759389 
0.866044 -0.448234 -0.221479 0.866044 -0.448234 -0.221479 0.866044 -0.448234 -0.221479 
0.863847 -0.433822 0.256059 0.863847 -0.433822 0.256059 0.863847 -0.433822 0.256059 
0.818327 -0.450052 0.357483 0.818327 -0.450052 0.357483 0.818327 -0.450052 0.357483 
-0.482489 0.378464 -0.789918 -0.482489 0.378464 -0.789918 -0.482489 0.378464 -0.789918 
-0.729672 0.572355 -0.374151 -0.729672 0.572355 -0.374151 -0.729672 0.572355 -0.374151 
-0.353421 0.531223 0.769997 -0.353421 0.531223 0.769997 -0.353421 0.531223 0.769997 
0.708264 -0.44319 -0.549495 0.708264 -0.44319 -0.549495 0.708264 -0.44319 -0.549495 
0.637333 -0.197428 0.744869 0.637333 -0.197428 0.744869 0.637333 -0.197428 0.744869 
0.876012 -0.439931 -0.197644 0.876012 -0.439931 -0.197644 0.876012 -0.439931 -0.197644 
-0.672811 0.721624 -0.163045 -0.672811 0.721624 -0.163045 -0.672811 0.721624 -0.163045 