# vtk DataFile Version 4.2
3D Slicer output. SPACE=LPS
ASCII
DATASET POLYDATA
POINTS 2640 double
6.6352477074 -4.3501005173 0.58516120911 8.2762985229 -4.3706479073 2.1993894577 6.6352477074 -4.2955327034 2.1993894577 
1.7120938301 -3.3499455452 -0.22195339203 4.9941964149 -4.3579921722 0.58516120911 1.7120938301 -3.2491889 0.58516120911 
1.7120938301 -3.2491889 0.58516120911 4.9941964149 -4.3579921722 0.58516120911 2.5326194763 -3.1529216766 1.3922748566 
1.7120938301 -2.8635931015 -1.040263176 4.9941964149 -3.6735363007 -0.66240978241 4.9941964149 -4.3579921722 0.58516120911 
1.7120938301 -3.3499455452 -0.22195339203 1.7120938301 -2.8635931015 -1.040263176 4.9941964149 -4.3579921722 0.58516120911 
2.5326194763 -3.1529216766 1.3922748566 4.9941964149 -4.3579921722 0.58516120911 6.6352477074 -4.2955327034 2.1993894577 
4.9941964149 -3.6735363007 -0.66240978241 6.6352477074 -4.3501005173 0.58516120911 4.9941964149 -4.3579921722 0.58516120911 
6.6352477074 -4.3501005173 0.58516120911 6.6352477074 -4.2955327034 2.1993894577 4.9941964149 -4.3579921722 0.58516120911 
7.4557728767 -3.6735363007 -0.17823028564 6.6352477074 -4.3501005173 0.58516120911 4.9941964149 -3.6735363007 -0.66240978241 
7.4557728767 -3.6735363007 3.4481067657 2.5326194763 -3.1529216766 1.3922748566 6.6352477074 -4.2955327034 2.1993894577 
6.6352477074 -4.3501005173 0.58516120911 7.4557728767 -3.6735363007 -0.17823028564 9.9610538483 -2.8635931015 0.58516120911 
9.9610538483 -2.8635931015 0.58516120911 8.2762985229 -4.3706479073 2.1993894577 6.6352477074 -4.3501005173 0.58516120911 
6.6352477074 -4.2955327034 2.1993894577 8.2762985229 -4.3706479073 2.1993894577 7.4557728767 -3.6735363007 3.4481067657 
10.737874985 -2.9191718102 3.81361866 8.2762985229 -4.3706479073 2.1993894577 9.9173488617 -3.6312336922 2.1993894577 
8.2762985229 -4.3706479073 2.1993894577 10.737874985 -2.9191718102 3.81361866 7.4557728767 -3.6735363007 3.4481067657 
1.7120938301 -3.3499455452 -0.22195339203 1.7120938301 -3.2491889 0.58516120911 0.69037389755 -1.2437067032 0.58516120911 
1.7120938301 -3.2491889 0.58516120911 1.7120938301 -1.2437067032 1.7632493973 0.69037389755 -1.2437067032 0.58516120911 
1.7120938301 -3.2491889 0.58516120911 2.5326194763 -3.1529216766 1.3922748566 1.7120938301 -1.2437067032 1.7632493973 
4.9941964149 -3.6735363007 -0.66240978241 1.7120938301 -2.8635931015 -1.040263176 4.9941964149 -2.8635931015 -1.3242149353 
4.9941964149 -2.8635931015 -1.3242149353 6.6352477074 -2.0536499023 -1.5918970108 7.4557728767 -3.6735363007 -0.17823028564 
7.4557728767 -3.6735363007 -0.17823028564 4.9941964149 -3.6735363007 -0.66240978241 4.9941964149 -2.8635931015 -1.3242149353 
2.5326194763 -3.1529216766 1.3922748566 7.4557728767 -3.6735363007 3.4481067657 6.6352477074 -2.0536499023 4.053273201 
6.6352477074 -2.0536499023 4.053273201 7.4557728767 -3.6735363007 3.4481067657 9.096824646 -2.0536499023 4.7709245682 
9.9173488617 -2.1149201393 -0.22195339203 9.9610538483 -2.8635931015 0.58516120911 7.4557728767 -3.6735363007 -0.17823028564 
9.9610538483 -2.8635931015 0.58516120911 10.707849503 -2.8635931015 1.3922748566 8.2762985229 -4.3706479073 2.1993894577 
10.707849503 -2.8635931015 1.3922748566 9.9173488617 -3.6312336922 2.1993894577 8.2762985229 -4.3706479073 2.1993894577 
7.4557728767 -3.6735363007 3.4481067657 10.737874985 -2.9191718102 3.81361866 10.737874985 -2.2493448257 4.6207332611 
9.096824646 -2.0536499023 4.7709245682 7.4557728767 -3.6735363007 3.4481067657 10.737874985 -2.2493448257 4.6207332611 
11.558401108 -2.6784729958 3.0065040588 10.737874985 -2.9191718102 3.81361866 9.9173488617 -3.6312336922 2.1993894577 
2.5326194763 -2.0536499023 -1.6366634369 1.7120938301 -2.8635931015 -1.040263176 1.7120938301 -1.2437067032 -1.7136898041 
4.9941964149 -2.8635931015 -1.3242149353 1.7120938301 -2.8635931015 -1.040263176 2.5326194763 -2.0536499023 -1.6366634369 
1.7120938301 -1.2437067032 1.7632493973 2.5326194763 -3.1529216766 1.3922748566 6.6352477074 -0.43376350403 4.4091730118 
6.6352477074 -0.43376350403 4.4091730118 2.5326194763 -3.1529216766 1.3922748566 6.6352477074 -2.0536499023 4.053273201 
9.9173488617 -2.1149201393 -0.22195339203 7.4557728767 -3.6735363007 -0.17823028564 6.6352477074 -2.0536499023 -1.5918970108 
10.707849503 -2.8635931015 1.3922748566 11.558401108 -2.6784729958 3.0065040588 9.9173488617 -3.6312336922 2.1993894577 
13.199451447 -1.2011694908 4.6207332611 10.737874985 -2.9191718102 3.81361866 11.558401108 -2.6784729958 3.0065040588 
10.737874985 -2.9191718102 3.81361866 13.199451447 -1.2011694908 4.6207332611 10.737874985 -2.2493448257 4.6207332611 
0.21625995636 -0.43376350403 -0.22195339203 1.7120938301 -3.3499455452 -0.22195339203 0.69037389755 -1.2437067032 0.58516120911 
0.21625995636 -0.43376350403 -0.22195339203 1.7120938301 -1.2437067032 -1.7136898041 1.7120938301 -2.8635931015 -1.040263176 
0.21625995636 -0.43376350403 -0.22195339203 1.7120938301 -2.8635931015 -1.040263176 1.7120938301 -3.3499455452 -0.22195339203 
2.5326194763 -2.0536499023 -1.6366634369 4.9941964149 0.37617969513 -2.4700670242 4.9941964149 -2.8635931015 -1.3242149353 
4.9941964149 -2.8635931015 -1.3242149353 4.9941964149 0.37617969513 -2.4700670242 6.6352477074 -2.0536499023 -1.5918970108 
9.096824646 0.37617969513 5.3937978745 6.6352477074 -2.0536499023 4.053273201 9.096824646 -2.0536499023 4.7709245682 
9.096824646 0.37617969513 -2.0405516624 9.9173488617 -2.1149201393 -0.22195339203 6.6352477074 -2.0536499023 -1.5918970108 
9.9610538483 -2.8635931015 0.58516120911 9.9173488617 -2.1149201393 -0.22195339203 14.175231934 0.37617969513 1.3922748566 
9.9610538483 -2.8635931015 0.58516120911 14.175231934 0.37617969513 1.3922748566 10.707849503 -2.8635931015 1.3922748566 
10.737874985 -2.2493448257 4.6207332611 13.199451447 -1.2011694908 4.6207332611 13.199451447 -0.43376350403 5.4802541733 
10.707849503 -2.8635931015 1.3922748566 14.01997757 -0.84318113327 3.81361866 11.558401108 -2.6784729958 3.0065040588 
13.199451447 -1.2011694908 4.6207332611 11.558401108 -2.6784729958 3.0065040588 14.01997757 -0.84318113327 3.81361866 
0.69037389755 -1.2437067032 0.58516120911 0.49794006348 0.37617969513 0.58516120911 0.21625995636 -0.43376350403 -0.22195339203 
4.9941964149 0.37617969513 -2.4700670242 2.5326194763 -2.0536499023 -1.6366634369 1.7120938301 -1.2437067032 -1.7136898041 
6.6352477074 -2.0536499023 -1.5918970108 4.9941964149 0.37617969513 -2.4700670242 7.4557728767 0.37617969513 -2.3998866081 
6.6352477074 -2.0536499023 -1.5918970108 7.4557728767 0.37617969513 -2.3998866081 9.096824646 0.37617969513 -2.0405516624 
9.096824646 0.37617969513 5.3937978745 6.6352477074 -0.43376350403 4.4091730118 6.6352477074 -2.0536499023 4.053273201 
10.737874985 -0.43376350403 -0.87543106079 9.9173488617 -2.1149201393 -0.22195339203 9.096824646 0.37617969513 -2.0405516624 
10.737874985 -2.2493448257 4.6207332611 9.096824646 0.37617969513 5.3937978745 9.096824646 -2.0536499023 4.7709245682 
9.096824646 0.37617969513 5.3937978745 10.737874985 -2.2493448257 4.6207332611 12.378925323 0.37617969513 6.0036020279 
9.9173488617 -2.1149201393 -0.22195339203 10.737874985 -0.43376350403 -0.87543106079 14.175231934 0.37617969513 1.3922748566 
12.378925323 0.37617969513 6.0036020279 10.737874985 -2.2493448257 4.6207332611 13.199451447 -0.43376350403 5.4802541733 
14.175231934 0.37617969513 1.3922748566 14.70557785 0.37617969513 2.1993894577 10.707849503 -2.8635931015 1.3922748566 
10.707849503 -2.8635931015 1.3922748566 14.70557785 0.37617969513 2.1993894577 14.01997757 -0.84318113327 3.81361866 
14.840503693 0.30730247498 4.6207332611 13.199451447 -1.2011694908 4.6207332611 14.01997757 -0.84318113327 3.81361866 
13.199451447 -1.2011694908 4.6207332611 14.840503693 0.30730247498 4.6207332611 13.199451447 -0.43376350403 5.4802541733 
0.21625995636 -0.43376350403 -0.22195339203 0.49794006348 0.37617969513 0.58516120911 0.20292377472 0.37617969513 -0.22195339203 
1.7120938301 1.186123848 -1.7957496643 1.7120938301 -1.2437067032 -1.7136898041 0.21625995636 -0.43376350403 -0.22195339203 
0.20292377472 0.37617969513 -0.22195339203 1.7120938301 1.186123848 -1.7957496643 0.21625995636 -0.43376350403 -0.22195339203 
1.7120938301 0.37617969513 1.8563861847 0.49794006348 0.37617969513 0.58516120911 0.69037389755 -1.2437067032 0.58516120911 
0.69037389755 -1.2437067032 0.58516120911 1.7120938301 -1.2437067032 1.7632493973 1.7120938301 0.37617969513 1.8563861847 
4.9941964149 0.37617969513 -2.4700670242 1.7120938301 -1.2437067032 -1.7136898041 1.7120938301 1.186123848 -1.7957496643 
6.6352477074 -0.43376350403 4.4091730118 1.7120938301 0.37617969513 1.8563861847 1.7120938301 -1.2437067032 1.7632493973 
13.199451447 4.4258966446 -1.8130407333 10.737874985 -0.43376350403 -0.87543106079 9.096824646 0.37617969513 -2.0405516624 
14.70557785 0.37617969513 2.1993894577 15.635295868 1.186123848 3.81361866 14.01997757 -0.84318113327 3.81361866 
14.840503693 0.30730247498 4.6207332611 14.840503693 1.1639738083 5.4278469086 13.199451447 -0.43376350403 5.4802541733 
14.840503693 0.30730247498 4.6207332611 14.01997757 -0.84318113327 3.81361866 15.635295868 1.186123848 3.81361866 
1.7120938301 1.9960670471 1.5446119308 0.49794006348 0.37617969513 0.58516120911 1.7120938301 0.37617969513 1.8563861847 
5.139811039 2.8060102463 -2.6432962418 4.9941964149 0.37617969513 -2.4700670242 1.7120938301 1.186123848 -1.7957496643 
1.7120938301 0.37617969513 1.8563861847 6.6352477074 -0.43376350403 4.4091730118 6.6352477074 1.9960670471 4.3170385361 
9.096824646 0.37617969513 5.3937978745 6.6352477074 1.9960670471 4.3170385361 6.6352477074 -0.43376350403 4.4091730118 
12.378925323 0.37617969513 6.0036020279 11.558401108 1.186123848 6.10338974 9.096824646 0.37617969513 5.3937978745 
10.737874985 -0.43376350403 -0.87543106079 13.199451447 4.4258966446 -1.8130407333 14.840503693 3.6159534454 -0.37247943878 
10.737874985 -0.43376350403 -0.87543106079 14.840503693 3.6159534454 -0.37247943878 14.175231934 0.37617969513 1.3922748566 
[...]
CELL_DATA 880
FIELD FieldData 1
GroupIds 1 880 float
0 0 0 0 0 0 0 0 0 
0 0 0 0 0 0 0 0 0 
0 0 0 0 0 0 0 0 0 
0 0 0 0 0 0 0 0 0 
0 0 0 0 0 0 0 0 0 
0 0 0 0 0 0 0 0 0 
0 0 0 0 0 0 0 0 0 
0 0 0 0 0 0 0 0 0 
0 0 0 0 0 0 0 0 0 
0 0 0 0 0 0 0 0 0 
0 0 0 0 0 0 0 0 0 
0 0 0 0 0 0 0 0 0 
0 0 0 0 0 0 0 0 0 
0 0 0 0 0 0 0 0 0 
0 0 0 0 0 0 0 0 0 
0 0 0 0 0 0 0 0 0 
0 0 0 0 0 0 0 0 0 
0 0 0 0 0 0 0 0 0 
0 0 0 0 0 0 0 0 0 
0 0 0 0 0 0 0 0 0 
0 0 0 0 0 0 0 0 0 
0 0 0 0 0 0 0 0 0 
0 0 0 0 0 0 0 0 0 
0 0 0 0 0 0 0 0 0 
0 0 0 0 0 0 0 0 0 
0 0 0 0 0 0 0 0 0 
0 0 0 0 0 0 0 0 0 
0 0 0 0 0 0 0 0 0 
0 0 0 0 0 0 0 0 0 
0 0 0 0 0 0 0 0 0 
0 0 0 0 0 0 0 0 0 
0 0 0 0 0 0 0 0 0 
0 0 0 0 0 0 0 0 0 
0 0 0 0 0 0 0 0 0 
0 0 0 0 0 0 0 0 0 
0 0 0 0 0 0 0 0 0 
0 0 0 0 0 0 0 0 0 
0 0 0 0 0 0 0 0 0 
0 0 0 0 0 0 0 0 0 
0 0 0 0 0 0 0 0 0 
0 0 0 0 0 0 0 0 0 
0 0 0 0 0 0 0 0 0 
0 0 0 0 0 0 0 0 0 
0 0 0 0 0 0 0 0 0 
0 0 0 0 0 0 0 0 0 
0 0 0 0 0 0 0 0 0 
0 0 0 0 0 0 0 0 0 
0 0 0 0 0 0 0 0 0 
0 0 0 0 0 0 0 0 0 
0 0 0 0 0 0 0 0 0 
0 0 0 0 0 0 0 0 0 
0 0 0 0 0 0 0 0 0 
0 0 0 0 0 0 0 0 0 
0 0 0 0 0 0 0 0 0 
0 0 0 0 0 0 0 0 0 
0 0 0 0 0 0 0 0 0 
0 0 0 0 0 0 0 0 0 
0 0 0 0 0 0 0 0 0 
0 0 0 0 0 0 0 0 0 
0 0 0 0 0 0 0 0 0 
0 0 0 0 0 0 0 0 0 
0 0 0 0 0 0 0 0 0 
0 0 0 0 0 0 0 0 0 
0 0 0 0 0 0 0 0 0 
0 0 0 0 0 0 0 0 0 
0 0 0 0 0 0 0 0 0 
0 0 0 0 0 0 0 0 0 
0 0 0 0 0 0 0 0 0 
0 0 0 0 0 0 0 0 0 
0 0 0 0 0 0 0 0 0 
0 0 0 0 0 0 0 0 0 
0 0 0 0 0 0 0 0 0 
0 0 0 0 0 0 0 0 0 
0 0 0 0 0 0 0 0 0 
0 0 0 0 0 0 0 0 0 
0 0 0 0 0 0 0 0 0 
0 0 0 0 0 0 0 0 0 
0 0 0 0 0 0 0 0 0 
0 0 0 0 0 0 0 0 0 
0 0 0 0 0 0 0 0 0 
0 0 0 0 0 0 0 0 0 
0 0 0 0 0 0 0 0 0 
0 0 0 0 0 0 0 0 0 
0 0 0 0 0 0 0 0 0 
0 0 0 0 0 0 0 0 0 
0 0 0 0 0 0 0 0 0 
0 0 0 0 0 0 0 0 0 
0 0 0 0 0 0 0 0 0 
0 0 0 0 0 0 0 0 0 
0 0 0 0 0 0 0 0 0 
0 0 0 0 0 0 0 0 0 
0 0 0 0 0 0 0 0 0 
0 0 0 0 0 0 0 0 0 
0 0 0 0 0 0 0 0 0 
0 0 0 0 0 0 0 0 0 
0 0 0 0 0 0 0 0 0 
0 0 0 0 0 0 0 0 0 
0 0 0 0 0 0 0 
POINT_DATA 2640
NORMALS Normals float
-0.0456987 -0.998385 0.0337497 -0.0456987 -0.998385 0.0337497 -0.0456987 -0.998385 0.0337497 
-0.317847 -0.940839 0.11745 -0.317847 -0.940839 0.11745 -0.317847 -0.940839 0.11745 
-0.293132 -0.867684 0.401495 -0.293132 -0.867684 0.401495 -0.293132 -0.867684 0.401495 
-0.158933 -0.865579 -0.474883 -0.158933 -0.865579 -0.474883 -0.158933 -0.865579 -0.474883 
-0.137076 -0.851518 -0.50609 -0.137076 -0.851518 -0.50609 -0.137076 -0.851518 -0.50609 
-0.314923 -0.880538 0.354227 -0.314923 -0.880538 0.354227 -0.314923 -0.880538 0.354227 
0.00421603 -0.876715 -0.480993 0.00421603 -0.876715 -0.480993 0.00421603 -0.876715 -0.480993 
0.0048061 -0.999418 0.0337846 0.0048061 -0.999418 0.0337846 0.0048061 -0.999418 0.0337846 
0.115363 -0.801687 -0.586507 0.115363 -0.801687 -0.586507 0.115363 -0.801687 -0.586507 
-0.322392 -0.745593 0.583228 -0.322392 -0.745593 0.583228 -0.322392 -0.745593 0.583228 
0.382636 -0.856082 -0.347439 0.382636 -0.856082 -0.347439 0.382636 -0.856082 -0.347439 
0.37535 -0.839781 -0.392276 0.37535 -0.839781 -0.392276 0.37535 -0.839781 -0.392276 
-0.0404407 -0.883513 0.466658 -0.0404407 -0.883513 0.466658 -0.0404407 -0.883513 0.466658 
0.403329 -0.895145 0.189847 0.403329 -0.895145 0.189847 0.403329 -0.895145 0.189847 
0.129249 -0.827257 0.546755 0.129249 -0.827257 0.546755 0.129249 -0.827257 0.546755 
-0.889602 -0.45322 0.0565779 -0.889602 -0.45322 0.0565779 -0.889602 -0.45322 0.0565779 
-0.705046 -0.359195 0.611465 -0.705046 -0.359195 0.611465 -0.705046 -0.359195 0.611465 
-0.619278 -0.397695 0.677003 -0.619278 -0.397695 0.677003 -0.619278 -0.397695 0.677003 
-0.0668447 -0.631321 -0.772635 -0.0668447 -0.631321 -0.772635 -0.0668447 -0.631321 -0.772635 
0.167687 -0.598626 -0.78328 0.167687 -0.598626 -0.78328 0.167687 -0.598626 -0.78328 
0.150577 -0.625522 -0.765538 0.150577 -0.625522 -0.765538 0.150577 -0.625522 -0.765538 
-0.379984 -0.486404 0.786781 -0.379984 -0.486404 0.786781 -0.379984 -0.486404 0.786781 
-0.250298 -0.447519 0.858532 -0.250298 -0.447519 0.858532 -0.250298 -0.447519 0.858532 
0.405984 -0.658948 -0.633218 0.405984 -0.658948 -0.633218 0.405984 -0.658948 -0.633218 
0.398286 -0.839977 -0.368521 0.398286 -0.839977 -0.368521 0.398286 -0.839977 -0.368521 
0.372527 -0.826783 -0.421489 0.372527 -0.826783 -0.421489 0.372527 -0.826783 -0.421489 
0.10516 -0.765251 0.635084 0.10516 -0.765251 0.635084 0.10516 -0.765251 0.635084 
-0.00405965 -0.630033 0.776558 -0.00405965 -0.630033 0.776558 -0.00405965 -0.630033 0.776558 
0.429721 -0.886324 0.172541 0.429721 -0.886324 0.172541 0.429721 -0.886324 0.172541 
-0.280508 -0.368462 -0.886313 -0.280508 -0.368462 -0.886313 -0.280508 -0.368462 -0.886313 
-0.0723907 -0.542795 -0.836739 -0.0723907 -0.542795 -0.836739 -0.0723907 -0.542795 -0.836739 
-0.401783 -0.338041 0.851057 -0.401783 -0.338041 0.851057 -0.401783 -0.338041 0.851057 
-0.499123 -0.185948 0.846345 -0.499123 -0.185948 0.846345 -0.499123 -0.185948 0.846345 
0.31917 -0.526187 -0.788199 0.31917 -0.526187 -0.788199 0.31917 -0.526187 -0.788199 
0.565171 -0.798792 -0.206188 0.565171 -0.798792 -0.206188 0.565171 -0.798792 -0.206188 
0.495378 -0.830081 0.256061 0.495378 -0.830081 0.256061 0.495378 -0.830081 0.256061 
0.311382 -0.731261 0.606876 0.311382 -0.731261 0.606876 0.311382 -0.731261 0.606876 
-0.887919 -0.455451 0.0645323 -0.887919 -0.455451 0.0645323 -0.887919 -0.455451 0.0645323 
-0.748495 -0.254563 -0.612335 -0.748495 -0.254563 -0.612335 -0.748495 -0.254563 -0.612335 
-0.858741 -0.440485 -0.261797 -0.858741 -0.440485 -0.261797 -0.858741 -0.440485 -0.261797 
0.00995179 -0.333425 -0.942724 0.00995179 -0.333425 -0.942724 0.00995179 -0.333425 -0.942724 
0.0107889 -0.333422 -0.942716 0.0107889 -0.333422 -0.942716 0.0107889 -0.333422 -0.942716 
-0.27178 -0.238969 0.932218 -0.27178 -0.238969 0.932218 -0.27178 -0.238969 0.932218 
0.329469 -0.483514 -0.810965 0.329469 -0.483514 -0.810965 0.329469 -0.483514 -0.810965 
0.564145 -0.589892 -0.577727 0.564145 -0.589892 -0.577727 0.564145 -0.589892 -0.577727 
0.5772 -0.617751 -0.534064 0.5772 -0.617751 -0.534064 0.5772 -0.617751 -0.534064 
0.302731 -0.710945 0.634753 0.302731 -0.710945 0.634753 0.302731 -0.710945 0.634753 
0.629983 -0.736106 -0.247527 0.629983 -0.736106 -0.247527 0.629983 -0.736106 -0.247527 
0.545233 -0.815905 0.192405 0.545233 -0.815905 0.192405 0.545233 -0.815905 0.192405 
-0.900451 -0.106969 0.421598 -0.900451 -0.106969 0.421598 -0.900451 -0.106969 0.421598 
-0.118667 -0.21246 -0.969938 -0.118667 -0.21246 -0.969938 -0.118667 -0.21246 -0.969938 
0.0269652 -0.323614 -0.945805 0.0269652 -0.323614 -0.945805 0.0269652 -0.323614 -0.945805 
0.1988 -0.369037 -0.907904 0.1988 -0.369037 -0.907904 0.1988 -0.369037 -0.907904 
-0.304838 -0.204375 0.930217 -0.304838 -0.204375 0.930217 -0.304838 -0.204375 0.930217 
0.338079 -0.479731 -0.809667 0.338079 -0.479731 -0.809667 0.338079 -0.479731 -0.809667 
0.0589407 -0.247884 0.966995 0.0589407 -0.247884 0.966995 0.0589407 -0.247884 0.966995 
-0.169391 -0.374318 0.911698 -0.169391 -0.374318 0.911698 -0.169391 -0.374318 0.911698 
0.551962 -0.522124 -0.650172 0.551962 -0.522124 -0.650172 0.551962 -0.522124 -0.650172 
0.0631634 -0.495704 0.866192 0.0631634 -0.495704 0.866192 0.0631634 -0.495704 0.866192 
0.62291 -0.666672 -0.409307 0.62291 -0.666672 -0.409307 0.62291 -0.666672 -0.409307 
0.638386 -0.719825 -0.272606 0.638386 -0.719825 -0.272606 0.638386 -0.719825 -0.272606 
0.636444 -0.692382 0.33992 0.636444 -0.692382 0.33992 0.636444 -0.692382 0.33992 
0.565511 -0.615214 0.549281 0.565511 -0.615214 0.549281 0.565511 -0.615214 0.549281 
-0.939112 -0.015463 0.343264 -0.939112 -0.015463 0.343264 -0.939112 -0.015463 0.343264 
-0.71234 -0.0236887 -0.701435 -0.71234 -0.0236887 -0.701435 -0.71234 -0.0236887 -0.701435 
-0.718671 -0.0118334 -0.69525 -0.718671 -0.0118334 -0.69525 -0.718671 -0.0118334 -0.69525 
-0.7205 -0.0855915 0.688153 -0.7205 -0.0855915 0.688153 -0.7205 -0.0855915 0.688153 
-0.754928 -0.0376441 0.654726 -0.754928 -0.0376441 0.654726 -0.754928 -0.0376441 0.654726 
-0.208949 -0.0330076 -0.977369 -0.208949 -0.0330076 -0.977369 -0.208949 -0.0330076 -0.977369 
-0.4663 -0.0507785 0.883168 -0.4663 -0.0507785 0.883168 -0.4663 -0.0507785 0.883168 
0.410227 -0.368726 -0.834119 0.410227 -0.368726 -0.834119 0.410227 -0.368726 -0.834119 
0.775035 -0.616925 -0.136839 0.775035 -0.616925 -0.136839 0.775035 -0.616925 -0.136839 
0.568418 -0.564186 0.598828 0.568418 -0.564186 0.598828 0.568418 -0.564186 0.598828 
0.779081 -0.620145 0.0919455 0.779081 -0.620145 0.0919455 0.779081 -0.620145 0.0919455 
-0.716847 0.131775 0.684665 -0.716847 0.131775 0.684665 -0.716847 0.131775 0.684665 
-0.214326 -0.0566746 -0.975117 -0.214326 -0.0566746 -0.975117 -0.214326 -0.0566746 -0.975117 
-0.455682 0.0337282 0.889503 -0.455682 0.0337282 0.889503 -0.455682 0.0337282 0.889503 
-0.381076 0.0350317 0.92388 -0.381076 0.0350317 0.92388 -0.381076 0.0350317 0.92388 
-0.174667 -0.292771 0.940094 -0.174667 -0.292771 0.940094 -0.174667 -0.292771 0.940094 
0.487088 -0.396829 -0.777992 0.487088 -0.396829 -0.777992 0.487088 -0.396829 -0.777992 
0.558752 -0.482258 -0.674703 0.558752 -0.482258 -0.674703 0.558752 -0.482258 -0.674703 
0.638855 -0.465027 -0.612873 0.638855 -0.465027 -0.612873 0.638855 -0.465027 -0.612873 
-0.758275 0.221443 -0.613173 -0.758275 0.221443 -0.613173 -0.758275 0.221443 -0.613173 
0.0277609 -0.226078 -0.973714 0.0277609 -0.226078 -0.973714 0.0277609 -0.226078 -0.973714 
-0.378619 0.0393227 0.924717 -0.378619 0.0393227 0.924717 -0.378619 0.0393227 0.924717 
-0.277515 0.00173412 0.96072 -0.277515 0.00173412 0.96072 -0.277515 0.00173412 0.96072 
0.267423 -0.317038 0.90993 0.267423 -0.317038 0.90993 0.267423 -0.317038 0.90993 
0.0356336 -0.0865632 0.995609 0.0356336 -0.0865632 0.995609 0.0356336 -0.0865632 0.995609 
0.35636 -0.337442 0.871287 0.35636 -0.337442 0.871287 0.35636 -0.337442 0.871287 
0.723446 -0.50065 -0.475368 0.723446 -0.50065 -0.475368 0.723446 -0.50065 -0.475368 
0.842441 -0.480252 -0.244237 0.842441 -0.480252 -0.244237 0.842441 -0.480252 -0.244237 
0.828982 -0.466764 0.308092 0.828982 -0.466764 0.308092 0.828982 -0.466764 0.308092 
0.772853 -0.435161 0.46188 0.772853 -0.435161 0.46188 0.772853 -0.435161 0.46188 
-0.488938 0.336555 -0.80478 -0.488938 0.336555 -0.80478 -0.488938 0.336555 -0.80478 
-0.456359 0.16817 0.87376 -0.456359 0.16817 0.87376 -0.456359 0.16817 0.87376 
-0.495341 0.235111 0.836277 -0.495341 0.235111 0.836277 -0.495341 0.235111 0.836277 
-0.13692 -0.0622763 -0.988623 -0.13692 -0.0622763 -0.988623 -0.13692 -0.0622763 -0.988623 
0.206043 -0.268522 -0.940979 0.206043 -0.268522 -0.940979 0.206043 -0.268522 -0.940979 
0.337106 -0.291213 -0.895296 0.337106 -0.291213 -0.895296 0.337106 -0.291213 -0.895296 
-0.20063 0.0841364 0.976048 -0.20063 0.0841364 0.976048 -0.20063 0.0841364 0.976048 
0.682997 -0.472658 -0.556875 0.682997 -0.472658 -0.556875 0.682997 -0.472658 -0.556875 
-0.878308 0.475315 -0.0514823 -0.878308 0.475315 -0.0514823 -0.878308 0.475315 -0.0514823 
-0.8731 0.368577 0.319135 -0.8731 0.368577 0.319135 -0.8731 0.368577 0.319135 
-0.820963 0.346567 0.453775 -0.820963 0.346567 0.453775 -0.820963 0.346567 0.453775 
-0.702793 0.699518 -0.129444 -0.702793 0.699518 -0.129444 -0.702793 0.699518 -0.129444 
-0.514299 0.511902 -0.688079 -0.514299 0.511902 -0.688079 -0.514299 0.511902 -0.688079 
-0.331686 0.222141 -0.916863 -0.331686 0.222141 -0.916863 -0.331686 0.222141 -0.916863 
0.143605 -0.223821 -0.963993 0.143605 -0.223821 -0.963993 0.143605 -0.223821 -0.963993 
-0.398512 0.152895 0.904329 -0.398512 0.152895 0.904329 -0.398512 0.152895 0.904329 
0.0168588 -0.0294195 0.999425 0.0168588 -0.0294195 0.999425 0.0168588 -0.0294195 0.999425 
0.158421 -0.0290521 0.986944 0.158421 -0.0290521 0.986944 0.158421 -0.0290521 0.986944 
0.700858 -0.277516 0.657102 0.700858 -0.277516 0.657102 0.700858 -0.277516 0.657102 
0.512467 -0.161452 0.843393 0.512467 -0.161452 0.843393 0.512467 -0.161452 0.843393 
0.853719 -0.465522 -0.233352 0.853719 -0.465522 -0.233352 0.853719 -0.465522 -0.233352 
0.907266 -0.402906 0.120557 0.907266 -0.402906 0.120557 0.907266 -0.402906 0.120557 
-0.754267 0.632102 -0.177562 -0.754267 0.632102 -0.177562 -0.754267 0.632102 -0.177562 
-0.60177 0.674049 0.428405 -0.60177 0.674049 0.428405 -0.60177 0.674049 0.428405 
-0.560026 0.502857 0.658411 -0.560026 0.502857 0.658411 -0.560026 0.502857 0.658411 
-0.507149 0.462175 0.727458 -0.507149 0.462175 0.727458 -0.507149 0.462175 0.727458 
-0.396251 0.0848869 -0.91421 -0.396251 0.0848869 -0.91421 -0.396251 0.0848869 -0.91421 
-0.136372 0.108833 -0.984662 -0.136372 0.108833 -0.984662 -0.136372 0.108833 -0.984662 
-0.48052 0.321831 0.815798 -0.48052 0.321831 0.815798 -0.48052 0.321831 0.815798 
-0.108894 0.0662533 0.991843 -0.108894 0.0662533 0.991843 -0.108894 0.0662533 0.991843 
0.819091 -0.35241 -0.452656 0.819091 -0.35241 -0.452656 0.819091 -0.35241 -0.452656 
0.573395 -0.249973 0.780213 0.573395 -0.249973 0.780213 0.573395 -0.249973 0.780213 
0.865076 -0.372195 -0.336325 0.865076 -0.372195 -0.336325 0.865076 -0.372195 -0.336325 
0.925625 -0.280792 0.25372 0.925625 -0.280792 0.25372 0.925625 -0.280792 0.25372 
0.832539 -0.252554 0.493046 0.832539 -0.252554 0.493046 0.832539 -0.252554 0.493046 
-0.782152 0.617689 -0.0818493 -0.782152 0.617689 -0.0818493 -0.782152 0.617689 -0.0818493 
-0.69015 0.438907 -0.575373 -0.69015 0.438907 -0.575373 -0.69015 0.438907 -0.575373 
-0.550073 0.434409 -0.713238 -0.550073 0.434409 -0.713238 -0.550073 0.434409 -0.713238 
-0.64778 0.411961 -0.640835 -0.64778 0.411961 -0.640835 -0.64778 0.411961 -0.640835 
-0.411923 0.292829 0.862885 -0.411923 0.292829 0.862885 -0.411923 0.292829 0.862885 
-0.326944 0.232569 0.91598 -0.326944 0.232569 0.91598 -0.326944 0.232569 0.91598 
-0.343625 0.237225 0.908651 -0.343625 0.237225 0.908651 -0.343625 0.237225 0.908651 
0.328593 -0.232601 -0.915382 0.328593 -0.232601 -0.915382 0.328593 -0.232601 -0.915382 
0.354104 -0.204958 -0.912471 0.354104 -0.204958 -0.912471 0.354104 -0.204958 -0.912471 
0.542108 -0.298627 -0.785456 0.542108 -0.298627 -0.785456 0.542108 -0.298627 -0.785456 
0.219753 0.0353919 0.974913 0.219753 0.0353919 0.974913 0.219753 0.0353919 0.974913 
0.686212 -0.309432 -0.658304 0.686212 -0.309432 -0.658304 0.686212 -0.309432 -0.658304 
-0.556675 0.701107 0.445602 -0.556675 0.701107 0.445602 -0.556675 0.701107 0.445602 
-0.431825 0.543863 0.719542 -0.431825 0.543863 0.719542 -0.431825 0.543863 0.719542 
-0.463579 0.479138 -0.745333 -0.463579 0.479138 -0.745333 -0.463579 0.479138 -0.745333 
-0.261221 -0.0225759 -0.965015 -0.261221 -0.0225759 -0.965015 -0.261221 -0.0225759 -0.965015 
-0.348728 0.312169 -0.883707 -0.348728 0.312169 -0.883707 -0.348728 0.312169 -0.883707 
0.0981494 -0.0794954 -0.991992 0.0981494 -0.0794954 -0.991992 0.0981494 -0.0794954 -0.991992 
0.00558833 -0.0233876 -0.999711 0.00558833 -0.0233876 -0.999711 0.00558833 -0.0233876 -0.999711 
-0.305307 0.253732 0.917827 -0.305307 0.253732 0.917827 -0.305307 0.253732 0.917827 
-0.0520081 0.178811 0.982508 -0.0520081 0.178811 0.982508 -0.0520081 0.178811 0.982508 
-0.0580859 0.17726 0.982448 -0.0580859 0.17726 0.982448 -0.0580859 0.17726 0.982448 
0.540001 -0.295631 -0.788036 0.540001 -0.295631 -0.788036 0.540001 -0.295631 -0.788036 
0.396547 0.0333044 0.91741 0.396547 0.0333044 0.91741 0.396547 0.0333044 0.91741 
0.399545 0.228097 0.887882 0.399545 0.228097 0.887882 0.399545 0.228097 0.887882 
0.571408 -0.0584524 0.818582 0.571408 -0.0584524 0.818582 0.571408 -0.0584524 0.818582 
0.914295 -0.306239 0.265107 0.914295 -0.306239 0.265107 0.914295 -0.306239 0.265107 
-0.583581 0.75128 -0.308238 -0.583581 0.75128 -0.308238 -0.583581 0.75128 -0.308238 
-0.582408 0.651028 -0.486788 -0.582408 0.651028 -0.486788 -0.582408 0.651028 -0.486788 
-0.61312 0.789307 -0.0328342 -0.61312 0.789307 -0.0328342 -0.61312 0.789307 -0.0328342 
-0.545357 0.718878 0.431046 -0.545357 0.718878 0.431046 -0.545357 0.718878 0.431046 
-0.472969 0.528695 -0.704827 -0.472969 0.528695 -0.704827 -0.472969 0.528695 -0.704827 
-0.581655 0.490486 0.648923 -0.581655 0.490486 0.648923 -0.581655 0.490486 0.648923 
0.100549 -0.0794763 -0.991753 0.100549 -0.0794763 -0.991753 0.100549 -0.0794763 -0.991753 
-0.480043 0.321937 0.816037 -0.480043 0.321937 0.816037 -0.480043 0.321937 0.816037 
0.943252 -0.273504 0.188339 0.943252 -0.273504 0.188339 0.943252 -0.273504 0.188339 
-0.604373 0.796671 0.00692547 -0.604373 0.796671 0.00692547 -0.604373 0.796671 0.00692547 
-0.661636 0.667285 0.342007 -0.661636 0.667285 0.342007 -0.661636 0.667285 0.342007 
-0.176073 0.327875 -0.928168 -0.176073 0.327875 -0.928168 -0.176073 0.327875 -0.928168 
-0.561674 0.566469 0.603022 -0.561674 0.566469 0.603022 -0.561674 0.566469 0.603022 
-0.0800304 0.237026 -0.968201 -0.0800304 0.237026 -0.968201 -0.0800304 0.237026 -0.968201 
-0.483514 0.356777 0.799328 -0.483514 0.356777 0.799328 -0.483514 0.356777 0.799328 
0.52116 -0.216896 -0.825438 0.52116 -0.216896 -0.825438 0.52116 -0.216896 -0.825438 
0.679761 -0.312298 -0.663623 0.679761 -0.312298 -0.663623 0.679761 -0.312298 -0.663623 
0.76092 -0.359151 -0.540381 0.76092 -0.359151 -0.540381 0.76092 -0.359151 -0.540381 
0.799604 -0.332418 -0.500131 0.799604 -0.332418 -0.500131 0.799604 -0.332418 -0.500131 
0.823905 0.0486396 0.564638 0.823905 0.0486396 0.564638 0.823905 0.0486396 0.564638 
0.894135 -0.350411 -0.278809 0.894135 -0.350411 -0.278809 0.894135 -0.350411 -0.278809 
0.94288 -0.260634 0.207476 0.94288 -0.260634 0.207476 0.94288 -0.260634 0.207476 
-0.385989 0.640597 -0.663813 -0.385989 0.640597 -0.663813 -0.385989 0.640597 -0.663813 
-0.493014 0.818218 -0.295731 -0.493014 0.818218 -0.295731 -0.493014 0.818218 -0.295731 
-0.509178 0.773675 -0.377048 -0.509178 0.773675 -0.377048 -0.509178 0.773675 -0.377048 
-0.549743 0.83531 0.00629952 -0.549743 0.83531 0.00629952 -0.549743 0.83531 0.00629952 
-0.584484 0.808059 -0.0736221 -0.584484 0.808059 -0.0736221 -0.584484 0.808059 -0.0736221 
-0.6593 0.670565 0.340096 -0.6593 0.670565 0.340096 -0.6593 0.670565 0.340096 
-0.247502 0.611811 -0.751285 -0.247502 0.611811 -0.751285 -0.247502 0.611811 -0.751285 
-0.636651 0.469774 0.611545 -0.636651 0.469774 0.611545 -0.636651 0.469774 0.611545 
-0.0916153 0.225831 -0.969849 -0.0916153 0.225831 -0.969849 -0.0916153 0.225831 -0.969849 
0.00389328 0.237396 0.971405 0.00389328 0.237396 0.971405 0.00389328 0.237396 0.971405 
0.317974 0.123618 0.940006 0.317974 0.123618 0.940006 0.317974 0.123618 0.940006 
0.629802 -0.220332 0.744851 0.629802 -0.220332 0.744851 0.629802 -0.220332 0.744851 
0.36801 0.180181 0.912197 0.36801 0.180181 0.912197 0.36801 0.180181 0.912197 
0.7069 -0.195404 0.679787 0.7069 -0.195404 0.679787 0.7069 -0.195404 0.679787 
0.879167 -0.435476 0.193457 0.879167 -0.435476 0.193457 0.879167 -0.435476 0.193457 
-0.579078 0.693391 -0.428809 -0.579078 0.693391 -0.428809 -0.579078 0.693391 -0.428809 
-0.750447 0.632849 0.190608 -0.750447 0.632849 0.190608 -0.750447 0.632849 0.190608 
-0.648033 0.546484 0.53048 -0.648033 0.546484 0.53048 -0.648033 0.546484 0.53048 
-0.631242 0.491644 0.59985 -0.631242 0.491644 0.59985 -0.631242 0.491644 0.59985 
-0.362357 0.638499 -0.678982 -0.362357 0.638499 -0.678982 -0.362357 0.638499 -0.678982 
-0.338639 0.538622 -0.771498 -0.338639 0.538622 -0.771498 -0.338639 0.538622 -0.771498 
0.158178 0.0387449 -0.98665 0.158178 0.0387449 -0.98665 0.158178 0.0387449 -0.98665 
-0.434491 0.427608 0.792698 -0.434491 0.427608 0.792698 -0.434491 0.427608 0.792698 
0.0398653 0.0634726 -0.997187 0.0398653 0.0634726 -0.997187 0.0398653 0.0634726 -0.997187 
-0.294305 0.361385 0.884752 -0.294305 0.361385 0.884752 -0.294305 0.361385 0.884752 
0.358392 -0.136619 -0.923521 0.358392 -0.136619 -0.923521 0.358392 -0.136619 -0.923521 
0.0167939 0.200289 0.979593 0.0167939 0.200289 0.979593 0.0167939 0.200289 0.979593 
0.335643 -0.137851 -0.931848 0.335643 -0.137851 -0.931848 0.335643 -0.137851 -0.931848 
-0.0279414 0.200239 0.979349 -0.0279414 0.200239 0.979349 -0.0279414 0.200239 0.979349 
0.583108 -0.214914 -0.783452 0.583108 -0.214914 -0.783452 0.583108 -0.214914 -0.783452 