# vtk DataFile Version 4.2
3D Slicer output. SPACE=LPS
ASCII
DATASET POLYDATA
POINTS 2664 double
2.954816103 -3.8146777153 0.53263950348 2.30509305 -3.5524249077 -0.25325965881 4.596282959 -3.9625077248 -0.25325965881 
2.954816103 -3.8146777153 0.53263950348 4.596282959 -3.9625077248 -0.25325965881 5.3600130081 -4.3698329926 0.53263950348 
5.3600130081 -4.3698329926 0.53263950348 5.3600130081 -4.4950752258 1.3185386658 2.954816103 -3.8146777153 0.53263950348 
5.3600130081 -4.4950752258 1.3185386658 4.596282959 -3.8146777153 2.1377573013 2.954816103 -3.8146777153 0.53263950348 
5.3600130081 -4.4950752258 1.3185386658 6.8874731064 -4.3808307648 2.890337944 4.596282959 -3.8146777153 2.1377573013 
5.9706439972 -3.0431675911 3.6762371063 4.596282959 -3.8146777153 2.1377573013 6.8874731064 -4.3808307648 2.890337944 
5.3600130081 -4.3698329926 0.53263950348 4.596282959 -3.9625077248 -0.25325965881 7.6512031555 -3.9651021957 0.53263950348 
7.6512031555 -3.9651021957 0.53263950348 5.3600130081 -4.4950752258 1.3185386658 5.3600130081 -4.3698329926 0.53263950348 
7.6512031555 -3.9651021957 0.53263950348 7.6512031555 -4.3974585533 1.3185386658 5.3600130081 -4.4950752258 1.3185386658 
5.3600130081 -4.4950752258 1.3185386658 7.6512031555 -4.3974585533 1.3185386658 6.8874731064 -4.3808307648 2.890337944 
7.6512031555 -4.3974585533 1.3185386658 8.4149332047 -3.8922567368 3.6762371063 6.8874731064 -4.3808307648 2.890337944 
5.9706439972 -3.0431675911 3.6762371063 6.8874731064 -4.3808307648 2.890337944 8.4149332047 -3.8922567368 3.6762371063 
7.6512031555 -4.3974585533 1.3185386658 9.1786632538 -3.992020607 2.890337944 8.4149332047 -3.8922567368 3.6762371063 
1.5413630009 -2.5244650841 -1.0391592979 2.30509305 -3.5524249077 -0.25325965881 1.514991045 -3.0431675911 0.53263950348 
2.30509305 -3.5524249077 -0.25325965881 2.954816103 -3.8146777153 0.53263950348 1.514991045 -3.0431675911 0.53263950348 
2.954816103 -3.8146777153 0.53263950348 4.596282959 -3.8146777153 2.1377573013 1.514991045 -3.0431675911 0.53263950348 
2.30509305 -3.5524249077 -0.25325965881 2.30509305 -2.2716574669 -1.4418339729 4.596282959 -2.2716574669 -1.5275650024 
4.596282959 -2.2716574669 -1.5275650024 4.596282959 -3.9625077248 -0.25325965881 2.30509305 -3.5524249077 -0.25325965881 
7.6512031555 -3.9651021957 0.53263950348 4.596282959 -3.9625077248 -0.25325965881 7.6512031555 -3.0431675911 -0.35771799088 
5.9706439972 -3.0431675911 3.6762371063 8.4149332047 -3.8922567368 3.6762371063 7.6512031555 -3.0431675911 4.3671178818 
8.4149332047 -3.8922567368 3.6762371063 9.9423933029 -2.2716574669 5.2431335449 7.6512031555 -3.0431675911 4.3671178818 
7.6512031555 -3.9651021957 0.53263950348 7.6512031555 -3.0431675911 -0.35771799088 10.068971634 -2.2716574669 0.53263950348 
7.6512031555 -3.9651021957 0.53263950348 10.068971634 -2.2716574669 0.53263950348 9.9865312576 -3.0431675911 1.3185386658 
7.6512031555 -3.9651021957 0.53263950348 9.9865312576 -3.0431675911 1.3185386658 7.6512031555 -4.3974585533 1.3185386658 
7.6512031555 -4.3974585533 1.3185386658 10.706123352 -2.9689269066 2.1044387817 9.1786632538 -3.992020607 2.890337944 
7.6512031555 -4.3974585533 1.3185386658 9.9865312576 -3.0431675911 1.3185386658 10.706123352 -2.9689269066 2.1044387817 
9.1786632538 -3.992020607 2.890337944 11.469853401 -2.6389989853 4.4621372223 8.4149332047 -3.8922567368 3.6762371063 
8.4149332047 -3.8922567368 3.6762371063 11.469853401 -2.6389989853 4.4621372223 9.9423933029 -2.2716574669 5.2431335449 
10.706123352 -2.9689269066 2.1044387817 11.469853401 -2.6389989853 4.4621372223 9.1786632538 -3.992020607 2.890337944 
12.233582497 -2.2703714371 4.4621372223 11.469853401 -2.6389989853 4.4621372223 10.706123352 -2.9689269066 2.1044387817 
1.514991045 -3.0431675911 0.53263950348 0.54433274269 -0.72863721848 0.53263950348 1.5413630009 -2.5244650841 -1.0391592979 
1.514991045 -3.0431675911 0.53263950348 1.5413630009 -1.5001473427 1.5098972321 0.54433274269 -0.72863721848 0.53263950348 
1.5413630009 -2.5244650841 -1.0391592979 2.30509305 -2.2716574669 -1.4418339729 2.30509305 -3.5524249077 -0.25325965881 
1.514991045 -3.0431675911 0.53263950348 3.0688230991 -2.2716574669 2.1086368561 1.5413630009 -1.5001473427 1.5098972321 
1.514991045 -3.0431675911 0.53263950348 4.596282959 -3.8146777153 2.1377573013 3.0688230991 -2.2716574669 2.1086368561 
3.0688230991 -2.2716574669 2.1086368561 4.596282959 -3.8146777153 2.1377573013 5.9706439972 -3.0431675911 3.6762371063 
7.6512031555 -3.0431675911 -0.35771799088 4.596282959 -3.9625077248 -0.25325965881 4.596282959 -2.2716574669 -1.5275650024 
4.596282959 -2.2716574669 -1.5275650024 7.6512031555 -1.5001473427 -1.243080616 7.6512031555 -3.0431675911 -0.35771799088 
12.997313499 -1.4470386505 2.890337944 12.233582497 -2.2703714371 4.4621372223 10.706123352 -2.9689269066 2.1044387817 
12.233582497 -2.2703714371 4.4621372223 12.997313499 -1.4470386505 2.890337944 12.997313499 -1.7244782448 3.6762371063 
1.5413630009 -2.5244650841 -1.0391592979 0.54433274269 -0.72863721848 0.53263950348 0.16454672813 0.042872428894 -0.25325965881 
3.0688230991 -2.2716574669 2.1086368561 3.0688230991 -0.72863721848 2.4821090698 1.5413630009 -1.5001473427 1.5098972321 
3.0688230991 -2.2716574669 2.1086368561 6.8874731064 -0.72863721848 4.8546743393 3.0688230991 -0.72863721848 2.4821090698 
6.8874731064 -0.72863721848 4.8546743393 3.0688230991 -2.2716574669 2.1086368561 5.9706439972 -3.0431675911 3.6762371063 
5.9706439972 -3.0431675911 3.6762371063 7.6512031555 -3.0431675911 4.3671178818 6.8874731064 -0.72863721848 4.8546743393 
9.9423933029 0.8143825531 6.2721786499 6.8874731064 -0.72863721848 4.8546743393 7.6512031555 -3.0431675911 4.3671178818 
7.6512031555 -1.5001473427 -1.243080616 9.1786632538 -1.5001473427 -0.60092163086 7.6512031555 -3.0431675911 -0.35771799088 
9.9423933029 0.8143825531 6.2721786499 7.6512031555 -3.0431675911 4.3671178818 9.9423933029 -2.2716574669 5.2431335449 
9.1786632538 -1.5001473427 -0.60092163086 10.068971634 -2.2716574669 0.53263950348 7.6512031555 -3.0431675911 -0.35771799088 
9.9423933029 0.8143825531 6.2721786499 9.9423933029 -2.2716574669 5.2431335449 11.469853401 -0.72863721848 6.2847537994 
11.469853401 -2.6389989853 4.4621372223 12.233582497 -1.9114747047 5.2480363846 9.9423933029 -2.2716574669 5.2431335449 
12.431672096 -0.72863721848 1.3185386658 12.997313499 -1.4470386505 2.890337944 10.706123352 -2.9689269066 2.1044387817 
9.9865312576 -3.0431675911 1.3185386658 12.431672096 -0.72863721848 1.3185386658 10.706123352 -2.9689269066 2.1044387817 
12.233582497 -2.2703714371 4.4621372223 12.233582497 -1.9114747047 5.2480363846 11.469853401 -2.6389989853 4.4621372223 
13.761044502 -0.73743200302 5.2480363846 12.233582497 -1.9114747047 5.2480363846 12.233582497 -2.2703714371 4.4621372223 
1.5413630009 0.042872428894 -1.6884222031 2.30509305 -2.2716574669 -1.4418339729 1.5413630009 -2.5244650841 -1.0391592979 
0.16454672813 0.042872428894 -0.25325965881 1.5413630009 0.042872428894 -1.6884222031 1.5413630009 -2.5244650841 -1.0391592979 
1.5413630009 0.042872428894 -1.6884222031 4.596282959 0.042872428894 -2.1131191254 2.30509305 -2.2716574669 -1.4418339729 
2.30509305 -2.2716574669 -1.4418339729 4.596282959 0.042872428894 -2.1131191254 4.596282959 -2.2716574669 -1.5275650024 
4.596282959 0.042872428894 -2.1131191254 6.8874731064 0.8143825531 -2.1100172997 4.596282959 -2.2716574669 -1.5275650024 
4.596282959 -2.2716574669 -1.5275650024 6.8874731064 0.8143825531 -2.1100172997 7.6512031555 -1.5001473427 -1.243080616 
7.6512031555 -1.5001473427 -1.243080616 8.4149332047 1.5858926773 -1.9505786896 9.1786632538 -1.5001473427 -0.60092163086 
9.1786632538 -1.5001473427 -0.60092163086 12.233582497 0.042872428894 0.57352495193 10.068971634 -2.2716574669 0.53263950348 
12.233582497 0.042872428894 0.57352495193 9.9865312576 -3.0431675911 1.3185386658 10.068971634 -2.2716574669 0.53263950348 
12.233582497 0.042872428894 0.57352495193 12.431672096 -0.72863721848 1.3185386658 9.9865312576 -3.0431675911 1.3185386658 
9.9423933029 -2.2716574669 5.2431335449 12.233582497 -1.9114747047 5.2480363846 11.469853401 -0.72863721848 6.2847537994 
13.761044502 0.035259246826 6.0339355469 11.469853401 -0.72863721848 6.2847537994 12.233582497 -1.9114747047 5.2480363846 
13.761044502 -0.73743200302 5.2480363846 13.761044502 0.035259246826 6.0339355469 12.233582497 -1.9114747047 5.2480363846 
12.997313499 -1.7244782448 3.6762371063 13.761044502 -0.73743200302 5.2480363846 12.233582497 -2.2703714371 4.4621372223 
0.54433274269 -0.72863721848 0.53263950348 1.5413630009 0.8143825531 1.6559171677 0.16454672813 0.042872428894 -0.25325965881 
1.5413630009 0.8143825531 1.6559171677 0.54433274269 -0.72863721848 0.53263950348 1.5413630009 -1.5001473427 1.5098972321 
1.5413630009 0.8143825531 1.6559171677 1.5413630009 -1.5001473427 1.5098972321 3.0688230991 -0.72863721848 2.4821090698 
4.596282959 0.042872428894 -2.1131191254 1.5413630009 0.042872428894 -1.6884222031 3.0688230991 0.8143825531 -1.9864401817 
9.9423933029 0.8143825531 6.2721786499 11.469853401 -0.72863721848 6.2847537994 12.233582497 0.8143825531 6.7343873978 
11.469853401 -0.72863721848 6.2847537994 13.761044502 0.035259246826 6.0339355469 12.233582497 0.8143825531 6.7343873978 
0.16454672813 0.042872428894 -0.25325965881 1.5413630009 0.8143825531 1.6559171677 0.88007616997 1.5858926773 0.53263950348 
1.5413630009 1.5858926773 -1.3846278191 1.5413630009 0.042872428894 -1.6884222031 0.16454672813 0.042872428894 -0.25325965881 
1.5413630009 2.3574028015 1.1798686981 1.5413630009 0.8143825531 1.6559171677 3.0688230991 -0.72863721848 2.4821090698 
4.596282959 0.042872428894 -2.1131191254 3.0688230991 0.8143825531 -1.9864401817 5.3600130081 1.5858926773 -2.2434921265 
6.8874731064 -0.72863721848 4.8546743393 6.1237430573 1.5858926773 4.3616304398 3.0688230991 -0.72863721848 2.4821090698 
6.1237430573 1.5858926773 4.3616304398 1.5413630009 2.3574028015 1.1798686981 3.0688230991 -0.72863721848 2.4821090698 
[...]
CELL_DATA 888
FIELD FieldData 1
GroupIds 1 888 float
0 0 0 0 0 0 0 0 0 
0 0 0 0 0 0 0 0 0 
0 0 0 0 0 0 0 0 0 
0 0 0 0 0 0 0 0 0 
0 0 0 0 0 0 0 0 0 
0 0 0 0 0 0 0 0 0 
0 0 0 0 0 0 0 0 0 
0 0 0 0 0 0 0 0 0 
0 0 0 0 0 0 0 0 0 
0 0 0 0 0 0 0 0 0 
0 0 0 0 0 0 0 0 0 
0 0 0 0 0 0 0 0 0 
0 0 0 0 0 0 0 0 0 
0 0 0 0 0 0 0 0 0 
0 0 0 0 0 0 0 0 0 
0 0 0 0 0 0 0 0 0 
0 0 0 0 0 0 0 0 0 
0 0 0 0 0 0 0 0 0 
0 0 0 0 0 0 0 0 0 
0 0 0 0 0 0 0 0 0 
0 0 0 0 0 0 0 0 0 
0 0 0 0 0 0 0 0 0 
0 0 0 0 0 0 0 0 0 
0 0 0 0 0 0 0 0 0 
0 0 0 0 0 0 0 0 0 
0 0 0 0 0 0 0 0 0 
0 0 0 0 0 0 0 0 0 
0 0 0 0 0 0 0 0 0 
0 0 0 0 0 0 0 0 0 
0 0 0 0 0 0 0 0 0 
0 0 0 0 0 0 0 0 0 
0 0 0 0 0 0 0 0 0 
0 0 0 0 0 0 0 0 0 
0 0 0 0 0 0 0 0 0 
0 0 0 0 0 0 0 0 0 
0 0 0 0 0 0 0 0 0 
0 0 0 0 0 0 0 0 0 
0 0 0 0 0 0 0 0 0 
0 0 0 0 0 0 0 0 0 
0 0 0 0 0 0 0 0 0 
0 0 0 0 0 0 0 0 0 
0 0 0 0 0 0 0 0 0 
0 0 0 0 0 0 0 0 0 
0 0 0 0 0 0 0 0 0 
0 0 0 0 0 0 0 0 0 
0 0 0 0 0 0 0 0 0 
0 0 0 0 0 0 0 0 0 
0 0 0 0 0 0 0 0 0 
0 0 0 0 0 0 0 0 0 
0 0 0 0 0 0 0 0 0 
0 0 0 0 0 0 0 0 0 
0 0 0 0 0 0 0 0 0 
0 0 0 0 0 0 0 0 0 
0 0 0 0 0 0 0 0 0 
0 0 0 0 0 0 0 0 0 
0 0 0 0 0 0 0 0 0 
0 0 0 0 0 0 0 0 0 
0 0 0 0 0 0 0 0 0 
0 0 0 0 0 0 0 0 0 
0 0 0 0 0 0 0 0 0 
0 0 0 0 0 0 0 0 0 
0 0 0 0 0 0 0 0 0 
0 0 0 0 0 0 0 0 0 
0 0 0 0 0 0 0 0 0 
0 0 0 0 0 0 0 0 0 
0 0 0 0 0 0 0 0 0 
0 0 0 0 0 0 0 0 0 
0 0 0 0 0 0 0 0 0 
0 0 0 0 0 0 0 0 0 
0 0 0 0 0 0 0 0 0 
0 0 0 0 0 0 0 0 0 
0 0 0 0 0 0 0 0 0 
0 0 0 0 0 0 0 0 0 
0 0 0 0 0 0 0 0 0 
0 0 0 0 0 0 0 0 0 
0 0 0 0 0 0 0 0 0 
0 0 0 0 0 0 0 0 0 
0 0 0 0 0 0 0 0 0 
0 0 0 0 0 0 0 0 0 
0 0 0 0 0 0 0 0 0 
0 0 0 0 0 0 0 0 0 
0 0 0 0 0 0 0 0 0 
0 0 0 0 0 0 0 0 0 
0 0 0 0 0 0 0 0 0 
0 0 0 0 0 0 0 0 0 
0 0 0 0 0 0 0 0 0 
0 0 0 0 0 0 0 0 0 
0 0 0 0 0 0 0 0 0 
0 0 0 0 0 0 0 0 0 
0 0 0 0 0 0 0 0 0 
0 0 0 0 0 0 0 0 0 
0 0 0 0 0 0 0 0 0 
0 0 0 0 0 0 0 0 0 
0 0 0 0 0 0 0 0 0 
0 0 0 0 0 0 0 0 0 
0 0 0 0 0 0 0 0 0 
0 0 0 0 0 0 0 0 0 
0 0 0 0 0 0 0 0 0 
0 0 0 0 0 0 
POINT_DATA 2664
NORMALS Normals float
-0.17331 -0.968308 -0.179842 -0.17331 -0.968308 -0.179842 -0.17331 -0.968308 -0.179842 
-0.216206 -0.936707 -0.275381 -0.216206 -0.936707 -0.275381 -0.216206 -0.936707 -0.275381 
-0.222238 -0.962843 -0.15344 -0.222238 -0.962843 -0.15344 -0.222238 -0.962843 -0.15344 
-0.363072 -0.854588 0.371294 -0.363072 -0.854588 0.371294 -0.363072 -0.854588 0.371294 
-0.340111 -0.8545 0.392625 -0.340111 -0.8545 0.392625 -0.340111 -0.8545 0.392625 
-0.377444 -0.647596 0.661933 -0.377444 -0.647596 0.661933 -0.377444 -0.647596 0.661933 
0.143884 -0.814532 -0.561991 0.143884 -0.814532 -0.561991 0.143884 -0.814532 -0.561991 
0.17185 -0.972847 -0.155035 0.17185 -0.972847 -0.155035 0.17185 -0.972847 -0.155035 
0.0373032 -0.875553 -0.481679 0.0373032 -0.875553 -0.481679 0.0373032 -0.875553 -0.481679 
0.0425458 -0.998606 0.0312369 0.0425458 -0.998606 0.0312369 0.0425458 -0.998606 0.0312369 
0.241937 -0.961848 0.127731 0.241937 -0.961848 0.127731 0.241937 -0.961848 0.127731 
-0.207507 -0.597354 0.774667 -0.207507 -0.597354 0.774667 -0.207507 -0.597354 0.774667 
0.0660438 -0.979838 0.188564 0.0660438 -0.979838 0.188564 0.0660438 -0.979838 0.188564 
-0.682872 -0.690252 -0.239245 -0.682872 -0.690252 -0.239245 -0.682872 -0.690252 -0.239245 
-0.470128 -0.877374 0.0958896 -0.470128 -0.877374 0.0958896 -0.470128 -0.877374 0.0958896 
-0.425295 -0.793703 0.434926 -0.425295 -0.793703 0.434926 -0.425295 -0.793703 0.434926 
-0.0274167 -0.679977 -0.73272 -0.0274167 -0.679977 -0.73272 -0.0274167 -0.679977 -0.73272 
-0.107103 -0.598401 -0.794006 -0.107103 -0.598401 -0.794006 -0.107103 -0.598401 -0.794006 
0.181399 -0.683156 -0.707384 0.181399 -0.683156 -0.707384 0.181399 -0.683156 -0.707384 
-0.256461 -0.738278 0.623837 -0.256461 -0.738278 0.623837 -0.256461 -0.738278 0.623837 
-0.0620511 -0.662912 0.746122 -0.0620511 -0.662912 0.746122 -0.0620511 -0.662912 0.746122 
0.437523 -0.624662 -0.646816 0.437523 -0.624662 -0.646816 0.437523 -0.624662 -0.646816 
0.460298 -0.657178 -0.596861 0.460298 -0.657178 -0.596861 0.460298 -0.657178 -0.596861 
0.452981 -0.781117 -0.429726 0.452981 -0.781117 -0.429726 0.452981 -0.781117 -0.429726 
0.459637 -0.859116 -0.225066 0.459637 -0.859116 -0.225066 0.459637 -0.859116 -0.225066 
0.469316 -0.809285 -0.353269 0.469316 -0.809285 -0.353269 0.469316 -0.809285 -0.353269 
0.268248 -0.888036 0.37341 0.268248 -0.888036 0.37341 0.268248 -0.888036 0.37341 
0.145297 -0.755085 0.639324 0.145297 -0.755085 0.639324 0.145297 -0.755085 0.639324 
0.535723 -0.842559 -0.0556322 0.535723 -0.842559 -0.0556322 0.535723 -0.842559 -0.0556322 
0.434635 -0.900485 -0.0147809 0.434635 -0.900485 -0.0147809 0.434635 -0.900485 -0.0147809 
-0.912888 -0.382843 -0.141657 -0.912888 -0.382843 -0.141657 -0.912888 -0.382843 -0.141657 
-0.778309 -0.326404 0.536372 -0.778309 -0.326404 0.536372 -0.778309 -0.326404 0.536372 
-0.159243 -0.671553 -0.723643 -0.159243 -0.671553 -0.723643 -0.159243 -0.671553 -0.723643 
-0.514185 -0.452618 0.728527 -0.514185 -0.452618 0.728527 -0.514185 -0.452618 0.728527 
-0.496946 -0.478269 0.724088 -0.496946 -0.478269 0.724088 -0.496946 -0.478269 0.724088 
-0.511343 -0.492901 0.703973 -0.511343 -0.492901 0.703973 -0.511343 -0.492901 0.703973 
0.152028 -0.594867 -0.789317 0.152028 -0.594867 -0.789317 0.152028 -0.594867 -0.789317 
0.202195 -0.4874 -0.849446 0.202195 -0.4874 -0.849446 0.202195 -0.4874 -0.849446 
0.580459 -0.802459 -0.138298 0.580459 -0.802459 -0.138298 0.580459 -0.802459 -0.138298 
0.314623 -0.89508 -0.315983 0.314623 -0.89508 -0.315983 0.314623 -0.89508 -0.315983 
-0.884611 -0.465403 -0.0293932 -0.884611 -0.465403 -0.0293932 -0.884611 -0.465403 -0.0293932 
-0.447074 -0.210428 0.869394 -0.447074 -0.210428 0.869394 -0.447074 -0.210428 0.869394 
-0.516932 -0.201378 0.832003 -0.516932 -0.201378 0.832003 -0.516932 -0.201378 0.832003 
-0.50848 -0.222153 0.831923 -0.50848 -0.222153 0.831923 -0.50848 -0.222153 0.831923 
-0.362105 -0.305029 0.880816 -0.362105 -0.305029 0.880816 -0.362105 -0.305029 0.880816 
-0.28085 -0.285681 0.916248 -0.28085 -0.285681 0.916248 -0.28085 -0.285681 0.916248 
0.342582 -0.467564 -0.814876 0.342582 -0.467564 -0.814876 0.342582 -0.467564 -0.814876 
-0.248176 -0.306432 0.918971 -0.248176 -0.306432 0.918971 -0.248176 -0.306432 0.918971 
0.437357 -0.545619 -0.714856 0.437357 -0.545619 -0.714856 0.437357 -0.545619 -0.714856 
-0.311115 -0.30063 0.90157 -0.311115 -0.30063 0.90157 -0.311115 -0.30063 0.90157 
0.122052 -0.784671 0.607778 0.122052 -0.784671 0.607778 0.122052 -0.784671 0.607778 
0.591441 -0.63146 -0.501454 0.591441 -0.63146 -0.501454 0.591441 -0.63146 -0.501454 
0.599585 -0.63342 -0.48916 0.599585 -0.63342 -0.48916 0.599585 -0.63342 -0.48916 
0.402012 -0.832895 0.380358 0.402012 -0.832895 0.380358 0.402012 -0.832895 0.380358 
0.573005 -0.745495 0.340445 0.573005 -0.745495 0.340445 0.573005 -0.745495 0.340445 
-0.395026 -0.225235 -0.890631 -0.395026 -0.225235 -0.890631 -0.395026 -0.225235 -0.890631 
-0.710812 -0.172452 -0.681914 -0.710812 -0.172452 -0.681914 -0.710812 -0.172452 -0.681914 
-0.136154 -0.149269 -0.979378 -0.136154 -0.149269 -0.979378 -0.136154 -0.149269 -0.979378 
-0.036251 -0.245102 -0.968819 -0.036251 -0.245102 -0.968819 -0.036251 -0.245102 -0.968819 
0.083606 -0.244405 -0.966062 0.083606 -0.244405 -0.966062 0.083606 -0.244405 -0.966062 
0.162952 -0.298471 -0.940405 0.162952 -0.298471 -0.940405 0.162952 -0.298471 -0.940405 
0.370461 -0.293701 -0.881191 0.370461 -0.293701 -0.881191 0.370461 -0.293701 -0.881191 
0.512789 -0.466846 -0.720488 0.512789 -0.466846 -0.720488 0.512789 -0.466846 -0.720488 
0.634057 -0.584034 -0.506829 0.634057 -0.584034 -0.506829 0.634057 -0.584034 -0.506829 
0.50218 -0.530519 -0.682909 0.50218 -0.530519 -0.682909 0.50218 -0.530519 -0.682909 
0.0958589 -0.620372 0.778428 0.0958589 -0.620372 0.778428 0.0958589 -0.620372 0.778428 
0.265587 -0.532765 0.803508 0.265587 -0.532765 0.803508 0.265587 -0.532765 0.803508 
0.480629 -0.625311 0.614802 0.480629 -0.625311 0.614802 0.480629 -0.625311 0.614802 
0.665592 -0.733585 0.137262 0.665592 -0.733585 0.137262 0.665592 -0.733585 0.137262 
-0.829228 0.142358 0.540476 -0.829228 0.142358 0.540476 -0.829228 0.142358 0.540476 
-0.716443 -0.043926 0.696261 -0.716443 -0.043926 0.696261 -0.716443 -0.043926 0.696261 
-0.51665 -0.0539089 0.854498 -0.51665 -0.0539089 0.854498 -0.51665 -0.0539089 0.854498 
-0.136871 -0.109324 -0.984538 -0.136871 -0.109324 -0.984538 -0.136871 -0.109324 -0.984538 
-0.194353 -0.184542 0.963417 -0.194353 -0.184542 0.963417 -0.194353 -0.184542 0.963417 
0.222899 -0.3728 0.900742 0.222899 -0.3728 0.900742 0.222899 -0.3728 0.900742 
-0.825783 0.100253 0.555006 -0.825783 0.100253 0.555006 -0.825783 0.100253 0.555006 
-0.715012 0.135051 -0.685944 -0.715012 0.135051 -0.685944 -0.715012 0.135051 -0.685944 
-0.213972 0.287978 0.933426 -0.213972 0.287978 0.933426 -0.213972 0.287978 0.933426 
-0.0999254 -0.0345596 -0.994395 -0.0999254 -0.0345596 -0.994395 -0.0999254 -0.0345596 -0.994395 
-0.527731 0.00680042 0.849384 -0.527731 0.00680042 0.849384 -0.527731 0.00680042 0.849384 
-0.560892 0.0704649 0.824885 -0.560892 0.0704649 0.824885 -0.560892 0.0704649 0.824885 
0.234821 -0.272054 -0.933191 0.234821 -0.272054 -0.933191 0.234821 -0.272054 -0.933191 
0.350895 -0.300966 -0.886731 0.350895 -0.300966 -0.886731 0.350895 -0.300966 -0.886731 
0.481706 -0.33844 -0.808342 0.481706 -0.33844 -0.808342 0.481706 -0.33844 -0.808342 
-0.194361 -0.184327 0.963456 -0.194361 -0.184327 0.963456 -0.194361 -0.184327 0.963456 
0.687023 -0.534962 -0.491746 0.687023 -0.534962 -0.491746 0.687023 -0.534962 -0.491746 
0.262587 -0.307461 0.914612 0.262587 -0.307461 0.914612 0.262587 -0.307461 0.914612 
0.723798 -0.540499 -0.428926 0.723798 -0.540499 -0.428926 0.723798 -0.540499 -0.428926 
0.775845 -0.449895 0.442334 0.775845 -0.449895 0.442334 0.775845 -0.449895 0.442334 
0.78395 -0.585417 -0.206665 0.78395 -0.585417 -0.206665 0.78395 -0.585417 -0.206665 
0.782631 -0.58558 -0.211152 0.782631 -0.58558 -0.211152 0.782631 -0.58558 -0.211152 
0.763093 -0.645368 0.0344889 0.763093 -0.645368 0.0344889 0.763093 -0.645368 0.0344889 
-0.768899 0.256735 -0.585561 -0.768899 0.256735 -0.585561 -0.768899 0.256735 -0.585561 
-0.787835 0.181567 0.588515 -0.787835 0.181567 0.588515 -0.787835 0.181567 0.588515 
-0.277641 0.18558 -0.94259 -0.277641 0.18558 -0.94259 -0.277641 0.18558 -0.94259 
0.0355579 -0.101601 -0.99419 0.0355579 -0.101601 -0.99419 0.0355579 -0.101601 -0.99419 
-0.453764 0.0399078 0.890228 -0.453764 0.0399078 0.890228 -0.453764 0.0399078 0.890228 
-0.427387 0.0157525 0.903932 -0.427387 0.0157525 0.903932 -0.427387 0.0157525 0.903932 
-0.321165 0.0783471 0.943777 -0.321165 0.0783471 0.943777 -0.321165 0.0783471 0.943777 
0.285002 -0.34249 0.895251 0.285002 -0.34249 0.895251 0.285002 -0.34249 0.895251 
0.839693 -0.51539 -0.171139 0.839693 -0.51539 -0.171139 0.839693 -0.51539 -0.171139 
0.759598 -0.516356 0.395457 0.759598 -0.516356 0.395457 0.759598 -0.516356 0.395457 
0.529335 -0.359829 0.768328 0.529335 -0.359829 0.768328 0.529335 -0.359829 0.768328 
-0.853561 0.386307 -0.349571 -0.853561 0.386307 -0.349571 -0.853561 0.386307 -0.349571 
-0.910858 0.412239 0.0199168 -0.910858 0.412239 0.0199168 -0.910858 0.412239 0.0199168 
-0.12627 0.0448148 -0.990983 -0.12627 0.0448148 -0.990983 -0.12627 0.0448148 -0.990983 
-0.522595 0.25334 0.814072 -0.522595 0.25334 0.814072 -0.522595 0.25334 0.814072 
0.0712303 -0.0314553 -0.996964 0.0712303 -0.0314553 -0.996964 0.0712303 -0.0314553 -0.996964 
0.320943 -0.175228 -0.930747 0.320943 -0.175228 -0.930747 0.320943 -0.175228 -0.930747 
0.467483 -0.350448 -0.81157 0.467483 -0.350448 -0.81157 0.467483 -0.350448 -0.81157 
-0.0382435 -0.0294879 0.998833 -0.0382435 -0.0294879 0.998833 -0.0382435 -0.0294879 0.998833 
0.640932 -0.441674 -0.627798 0.640932 -0.441674 -0.627798 0.640932 -0.441674 -0.627798 
0.765609 -0.456066 -0.453703 0.765609 -0.456066 -0.453703 0.765609 -0.456066 -0.453703 
0.871806 -0.488241 -0.0396805 0.871806 -0.488241 -0.0396805 0.871806 -0.488241 -0.0396805 
0.856189 -0.479495 0.192417 0.856189 -0.479495 0.192417 0.856189 -0.479495 0.192417 
0.774773 -0.504269 0.381365 0.774773 -0.504269 0.381365 0.774773 -0.504269 0.381365 
-0.91063 0.41269 0.0209681 -0.91063 0.41269 0.0209681 -0.91063 0.41269 0.0209681 
-0.834136 0.378023 0.401642 -0.834136 0.378023 0.401642 -0.834136 0.378023 0.401642 
-0.544308 0.837805 0.0425676 -0.544308 0.837805 0.0425676 -0.544308 0.837805 0.0425676 
-0.514246 0.853657 0.0825952 -0.514246 0.853657 0.0825952 -0.514246 0.853657 0.0825952 
-0.381623 0.633501 0.673082 -0.381623 0.633501 0.673082 -0.381623 0.633501 0.673082 
-0.288564 0.384462 -0.876881 -0.288564 0.384462 -0.876881 -0.288564 0.384462 -0.876881 
-0.474784 0.650332 0.592999 -0.474784 0.650332 0.592999 -0.474784 0.650332 0.592999 
-0.484032 0.281519 0.828529 -0.484032 0.281519 0.828529 -0.484032 0.281519 0.828529 
0.12567 -0.0439875 -0.991096 0.12567 -0.0439875 -0.991096 0.12567 -0.0439875 -0.991096 
-0.316701 0.0919136 0.944062 -0.316701 0.0919136 0.944062 -0.316701 0.0919136 0.944062 
0.52847 -0.350356 -0.773285 0.52847 -0.350356 -0.773285 0.52847 -0.350356 -0.773285 
0.638266 -0.420085 -0.645093 0.638266 -0.420085 -0.645093 0.638266 -0.420085 -0.645093 
0.674376 -0.401719 -0.619547 0.674376 -0.401719 -0.619547 0.674376 -0.401719 -0.619547 
0.828583 -0.427574 -0.36143 0.828583 -0.427574 -0.36143 0.828583 -0.427574 -0.36143 
0.838327 -0.432602 -0.331757 0.838327 -0.432602 -0.331757 0.838327 -0.432602 -0.331757 
-0.468317 0.720839 -0.510951 -0.468317 0.720839 -0.510951 -0.468317 0.720839 -0.510951 
-0.486295 0.647904 -0.586291 -0.486295 0.647904 -0.586291 -0.486295 0.647904 -0.586291 
-0.268671 0.202629 -0.941678 -0.268671 0.202629 -0.941678 -0.268671 0.202629 -0.941678 
-0.494558 0.51549 -0.699773 -0.494558 0.51549 -0.699773 -0.494558 0.51549 -0.699773 
-0.577623 0.455675 0.677283 -0.577623 0.455675 0.677283 -0.577623 0.455675 0.677283 
-0.297208 0.219015 -0.929355 -0.297208 0.219015 -0.929355 -0.297208 0.219015 -0.929355 
0.036649 0.0114661 -0.999262 0.036649 0.0114661 -0.999262 0.036649 0.0114661 -0.999262 
-0.00593252 0.0451756 -0.998962 -0.00593252 0.0451756 -0.998962 -0.00593252 0.0451756 -0.998962 
-0.499951 0.226544 0.835899 -0.499951 0.226544 0.835899 -0.499951 0.226544 0.835899 
-0.39159 0.207183 0.896512 -0.39159 0.207183 0.896512 -0.39159 0.207183 0.896512 
0.363378 -0.150173 -0.919459 0.363378 -0.150173 -0.919459 0.363378 -0.150173 -0.919459 
-0.0577605 0.0286036 0.997921 -0.0577605 0.0286036 0.997921 -0.0577605 0.0286036 0.997921 
0.543848 -0.26637 -0.795787 0.543848 -0.26637 -0.795787 0.543848 -0.26637 -0.795787 
0.301652 -0.105609 0.947551 0.301652 -0.105609 0.947551 0.301652 -0.105609 0.947551 
0.551314 -0.235975 0.800231 0.551314 -0.235975 0.800231 0.551314 -0.235975 0.800231 
-0.544021 0.610185 -0.575947 -0.544021 0.610185 -0.575947 -0.544021 0.610185 -0.575947 
-0.663751 0.744477 0.0720315 -0.663751 0.744477 0.0720315 -0.663751 0.744477 0.0720315 
-0.589746 0.749388 0.301027 -0.589746 0.749388 0.301027 -0.589746 0.749388 0.301027 
-0.552947 0.585905 0.592423 -0.552947 0.585905 0.592423 -0.552947 0.585905 0.592423 
0.0938818 0.228367 -0.969038 0.0938818 0.228367 -0.969038 0.0938818 0.228367 -0.969038 
-0.545487 0.415155 0.728073 -0.545487 0.415155 0.728073 -0.545487 0.415155 0.728073 
0.173941 -0.0926408 -0.980389 0.173941 -0.0926408 -0.980389 0.173941 -0.0926408 -0.980389 
0.0132452 0.0754062 0.997065 0.0132452 0.0754062 0.997065 0.0132452 0.0754062 0.997065 
0.184162 0.0178617 0.982733 0.184162 0.0178617 0.982733 0.184162 0.0178617 0.982733 
0.735479 -0.182911 0.652391 0.735479 -0.182911 0.652391 0.735479 -0.182911 0.652391 
0.703084 -0.246546 0.667 0.703084 -0.246546 0.667 0.703084 -0.246546 0.667 
-0.4783 0.444618 -0.757326 -0.4783 0.444618 -0.757326 -0.4783 0.444618 -0.757326 
-0.680294 0.632388 -0.37052 -0.680294 0.632388 -0.37052 -0.680294 0.632388 -0.37052 
-0.353009 0.590169 -0.726006 -0.353009 0.590169 -0.726006 -0.353009 0.590169 -0.726006 
-0.315681 0.341133 -0.885423 -0.315681 0.341133 -0.885423 -0.315681 0.341133 -0.885423 
-0.139109 0.219707 -0.965597 -0.139109 0.219707 -0.965597 -0.139109 0.219707 -0.965597 
0.179107 0.153169 -0.971833 0.179107 0.153169 -0.971833 0.179107 0.153169 -0.971833 
0.239026 -0.0255891 -0.970676 0.239026 -0.0255891 -0.970676 0.239026 -0.0255891 -0.970676 
0.362835 -0.159583 -0.918087 0.362835 -0.159583 -0.918087 0.362835 -0.159583 -0.918087 
0.388425 -0.130889 -0.912137 0.388425 -0.130889 -0.912137 0.388425 -0.130889 -0.912137 
-0.0117197 0.108078 0.994073 -0.0117197 0.108078 0.994073 -0.0117197 0.108078 0.994073 
0.697645 -0.365367 -0.616278 0.697645 -0.365367 -0.616278 0.697645 -0.365367 -0.616278 
0.794573 -0.362262 -0.487257 0.794573 -0.362262 -0.487257 0.794573 -0.362262 -0.487257 
-0.236526 0.838329 -0.491182 -0.236526 0.838329 -0.491182 -0.236526 0.838329 -0.491182 
-0.610175 0.515148 0.601922 -0.610175 0.515148 0.601922 -0.610175 0.515148 0.601922 
-0.361309 0.284215 0.888075 -0.361309 0.284215 0.888075 -0.361309 0.284215 0.888075 
-0.38554 0.281242 0.878785 -0.38554 0.281242 0.878785 -0.38554 0.281242 0.878785 
-0.0359881 0.179342 0.983128 -0.0359881 0.179342 0.983128 -0.0359881 0.179342 0.983128 
0.261146 0.0175419 0.96514 0.261146 0.0175419 0.96514 0.261146 0.0175419 0.96514 
0.508927 -0.264971 -0.819014 0.508927 -0.264971 -0.819014 0.508927 -0.264971 -0.819014 
0.614904 -0.25004 0.747913 0.614904 -0.25004 0.747913 0.614904 -0.25004 0.747913 
0.830872 -0.434959 -0.347077 0.830872 -0.434959 -0.347077 0.830872 -0.434959 -0.347077 
0.844333 -0.482993 -0.231989 0.844333 -0.482993 -0.231989 0.844333 -0.482993 -0.231989 
0.891257 -0.45168 -0.0405657 0.891257 -0.45168 -0.0405657 0.891257 -0.45168 -0.0405657 
0.884974 -0.463281 0.0468091 0.884974 -0.463281 0.0468091 0.884974 -0.463281 0.0468091 
0.77221 -0.391348 0.500539 0.77221 -0.391348 0.500539 0.77221 -0.391348 0.500539 
0.906899 -0.368775 0.203814 0.906899 -0.368775 0.203814 0.906899 -0.368775 0.203814 
-0.625614 0.777747 -0.0609638 -0.625614 0.777747 -0.0609638 -0.625614 0.777747 -0.0609638 
-0.591608 0.747568 0.301897 -0.591608 0.747568 0.301897 -0.591608 0.747568 0.301897 
-0.343138 0.680105 -0.647853 -0.343138 0.680105 -0.647853 -0.343138 0.680105 -0.647853 
-0.438128 0.678316 -0.589857 -0.438128 0.678316 -0.589857 -0.438128 0.678316 -0.589857 
-0.54577 0.410586 0.730448 -0.54577 0.410586 0.730448 -0.54577 0.410586 0.730448 
0.0165936 0.361488 -0.932229 0.0165936 0.361488 -0.932229 0.0165936 0.361488 -0.932229 
0.629155 -0.440812 -0.640195 0.629155 -0.440812 -0.640195 0.629155 -0.440812 -0.640195 
0.793063 -0.453665 -0.406496 0.793063 -0.453665 -0.406496 0.793063 -0.453665 -0.406496 
-0.541252 0.838443 0.0637069 -0.541252 0.838443 0.0637069 -0.541252 0.838443 0.0637069 
-0.350866 0.736199 -0.578708 -0.350866 0.736199 -0.578708 -0.350866 0.736199 -0.578708 
-0.381038 0.799507 -0.464326 -0.381038 0.799507 -0.464326 -0.381038 0.799507 -0.464326 
-0.525611 0.814214 -0.246555 -0.525611 0.814214 -0.246555 -0.525611 0.814214 -0.246555 
-0.591352 0.779424 0.206887 -0.591352 0.779424 0.206887 -0.591352 0.779424 0.206887 
-0.611429 0.741698 0.27575 -0.611429 0.741698 0.27575 -0.611429 0.741698 0.27575 
-0.600215 0.602261 0.52633 -0.600215 0.602261 0.52633 -0.600215 0.602261 0.52633 
0.177041 0.214168 -0.960619 0.177041 0.214168 -0.960619 0.177041 0.214168 -0.960619 
-0.486563 0.418216 0.767041 -0.486563 0.418216 0.767041 -0.486563 0.418216 0.767041 
-0.114497 0.216175 -0.969618 -0.114497 0.216175 -0.969618 -0.114497 0.216175 -0.969618 
-0.26414 0.351693 0.898077 -0.26414 0.351693 0.898077 -0.26414 0.351693 0.898077 
-0.167582 0.303031 0.93813 -0.167582 0.303031 0.93813 -0.167582 0.303031 0.93813 
0.401147 -0.174033 -0.899329 0.401147 -0.174033 -0.899329 0.401147 -0.174033 -0.899329 
0.26076 -0.0571405 0.963711 0.26076 -0.0571405 0.963711 0.26076 -0.0571405 0.963711 
-0.640956 0.56994 0.514143 -0.640956 0.56994 0.514143 -0.640956 0.56994 0.514143 
-0.256497 0.700834 -0.665613 -0.256497 0.700834 -0.665613 -0.256497 0.700834 -0.665613 