# vtk DataFile Version 4.2
3D Slicer output. SPACE=LPS
ASCII
DATASET POLYDATA
POINTS 2676 double
1.6869206429 -3.3226590157 0.17363548279 2.5014748573 -3.4627785683 -0.62705516815 3.3160290718 -3.8979253769 0.17363548279 
3.3160290718 -3.6551084518 0.97432518005 1.6869206429 -3.3226590157 0.17363548279 3.3160290718 -3.8979253769 0.17363548279 
2.5014748573 -3.4627785683 -0.62705516815 4.9451379776 -2.8333353996 -1.4453210831 5.7596921921 -4.2128520012 0.17363548279 
5.7596921921 -4.2128520012 0.17363548279 3.3160290718 -3.8979253769 0.17363548279 2.5014748573 -3.4627785683 -0.62705516815 
5.7596921921 -4.2128520012 0.17363548279 4.9451379776 -2.8333353996 -1.4453210831 5.7596921921 -3.694773674 -0.62705516815 
3.3160290718 -3.6551084518 0.97432518005 3.3160290718 -3.8979253769 0.17363548279 5.7596921921 -4.2041368484 1.7750148773 
5.7596921921 -4.2128520012 0.17363548279 5.7596921921 -4.383184433 0.97432518005 3.3160290718 -3.8979253769 0.17363548279 
5.7596921921 -4.383184433 0.97432518005 5.7596921921 -4.2041368484 1.7750148773 3.3160290718 -3.8979253769 0.17363548279 
8.2033557892 -3.6314067841 0.22238349915 5.7596921921 -4.2128520012 0.17363548279 5.7596921921 -3.694773674 -0.62705516815 
3.3160290718 -3.6551084518 0.97432518005 5.7596921921 -4.2041368484 1.7750148773 7.3888015747 -3.6314067841 3.262509346 
8.2033557892 -3.6314067841 0.22238349915 8.2033557892 -4.0718822479 0.97432518005 5.7596921921 -4.2128520012 0.17363548279 
5.7596921921 -4.2128520012 0.17363548279 8.2033557892 -4.0718822479 0.97432518005 5.7596921921 -4.383184433 0.97432518005 
8.2033557892 -4.0718822479 0.97432518005 8.2033557892 -4.2701516151 1.7750148773 5.7596921921 -4.383184433 0.97432518005 
5.7596921921 -4.383184433 0.97432518005 8.2033557892 -4.2701516151 1.7750148773 5.7596921921 -4.2041368484 1.7750148773 
5.7596921921 -4.2041368484 1.7750148773 8.2033557892 -4.2701516151 1.7750148773 7.3888015747 -3.6314067841 3.262509346 
8.2033557892 -3.6314067841 0.22238349915 9.8324642181 -3.0759205818 0.97432518005 8.2033557892 -4.0718822479 0.97432518005 
7.3888015747 -3.6314067841 3.262509346 8.2033557892 -4.2701516151 1.7750148773 9.8324642181 -3.3011174202 3.3763961792 
8.2033557892 -4.2701516151 1.7750148773 8.2033557892 -4.0718822479 0.97432518005 9.8324642181 -3.0759205818 0.97432518005 
8.2033557892 -4.2701516151 1.7750148773 10.647018433 -3.0441870689 2.5757055283 9.8324642181 -3.3011174202 3.3763961792 
1.6869206429 -3.1771936417 -0.62705516815 1.6869206429 -2.035264492 -1.5395026207 2.5014748573 -3.4627785683 -0.62705516815 
1.6869206429 -3.3226590157 0.17363548279 1.6869206429 -3.1771936417 -0.62705516815 2.5014748573 -3.4627785683 -0.62705516815 
3.3160290718 -3.6551084518 0.97432518005 1.6869206429 -2.8333353996 1.0140771866 1.6869206429 -3.3226590157 0.17363548279 
1.6869206429 -2.8333353996 1.0140771866 3.3160290718 -3.6551084518 0.97432518005 3.3160290718 -2.035264492 2.1030244827 
2.5014748573 -3.4627785683 -0.62705516815 1.6869206429 -2.035264492 -1.5395026207 4.9451379776 -2.8333353996 -1.4453210831 
3.3160290718 -2.035264492 2.1030244827 3.3160290718 -3.6551084518 0.97432518005 6.5742464066 -2.035264492 3.9278736115 
6.5742464066 -2.035264492 3.9278736115 3.3160290718 -3.6551084518 0.97432518005 7.3888015747 -3.6314067841 3.262509346 
8.2033557892 -2.8333353996 -0.56771087646 8.2033557892 -3.6314067841 0.22238349915 5.7596921921 -3.694773674 -0.62705516815 
6.5742464066 -2.035264492 3.9278736115 7.3888015747 -3.6314067841 3.262509346 8.2033557892 -2.8333353996 4.0670614243 
7.3888015747 -3.6314067841 3.262509346 9.8324642181 -3.3011174202 3.3763961792 9.8324642181 -2.7149558067 4.1770858765 
8.2033557892 -2.8333353996 4.0670614243 7.3888015747 -3.6314067841 3.262509346 9.8324642181 -2.7149558067 4.1770858765 
9.8324642181 -3.0759205818 0.97432518005 10.647018433 -3.0441870689 2.5757055283 8.2033557892 -4.2701516151 1.7750148773 
13.09068203 -1.2027544975 4.1770858765 9.8324642181 -3.3011174202 3.3763961792 10.647018433 -3.0441870689 2.5757055283 
3.3160290718 -2.035264492 2.1030244827 1.6869206429 -1.2371935844 1.6822166443 1.6869206429 -2.8333353996 1.0140771866 
4.9451379776 -2.8333353996 -1.4453210831 1.6869206429 -2.035264492 -1.5395026207 4.1305837631 -2.035264492 -1.8884711266 
5.7596921921 -1.2371935844 -2.1262850761 5.7596921921 -3.694773674 -0.62705516815 4.9451379776 -2.8333353996 -1.4453210831 
5.7596921921 -1.2371935844 -2.1262850761 4.9451379776 -2.8333353996 -1.4453210831 4.1305837631 -2.035264492 -1.8884711266 
8.2033557892 -2.8333353996 -0.56771087646 5.7596921921 -3.694773674 -0.62705516815 5.7596921921 -1.2371935844 -2.1262850761 
6.5742464066 -2.035264492 3.9278736115 8.2033557892 -2.8333353996 4.0670614243 8.2033557892 -1.2371935844 4.8541316986 
8.2033557892 -2.8333353996 -0.56771087646 9.8324642181 -1.2371935844 -0.75466585159 8.2033557892 -3.6314067841 0.22238349915 
8.2033557892 -2.8333353996 4.0670614243 9.8324642181 -2.7149558067 4.1770858765 11.461573601 -0.43912220001 5.6151981354 
9.8324642181 -1.2371935844 -0.75466585159 11.899891853 -1.2371935844 0.97432518005 9.8324642181 -3.0759205818 0.97432518005 
8.2033557892 -3.6314067841 0.22238349915 9.8324642181 -1.2371935844 -0.75466585159 9.8324642181 -3.0759205818 0.97432518005 
11.461573601 -1.4233036041 4.9777755737 9.8324642181 -2.7149558067 4.1770858765 9.8324642181 -3.3011174202 3.3763961792 
11.461573601 -0.43912220001 5.6151981354 9.8324642181 -2.7149558067 4.1770858765 11.461573601 -1.4233036041 4.9777755737 
9.8324642181 -3.0759205818 0.97432518005 11.899891853 -1.2371935844 0.97432518005 10.647018433 -3.0441870689 2.5757055283 
13.09068203 -1.2027544975 4.1770858765 11.461573601 -1.4233036041 4.9777755737 9.8324642181 -3.3011174202 3.3763961792 
1.6869206429 -2.035264492 -1.5395026207 1.6869206429 -3.1771936417 -0.62705516815 0.20237636566 -0.43912220001 0.17363548279 
1.6869206429 -3.3226590157 0.17363548279 0.20237636566 -0.43912220001 0.17363548279 1.6869206429 -3.1771936417 -0.62705516815 
1.6869206429 -3.3226590157 0.17363548279 1.6869206429 -1.2371935844 1.6822166443 0.20237636566 -0.43912220001 0.17363548279 
1.6869206429 -3.3226590157 0.17363548279 1.6869206429 -2.8333353996 1.0140771866 1.6869206429 -1.2371935844 1.6822166443 
3.3160290718 -2.035264492 2.1030244827 6.5742464066 -2.035264492 3.9278736115 4.9451379776 -1.2371935844 3.3329362869 
8.2033557892 -2.8333353996 -0.56771087646 5.7596921921 -1.2371935844 -2.1262850761 9.0179100037 0.35894870758 -1.9003067017 
9.8324642181 -1.2371935844 -0.75466585159 8.2033557892 -2.8333353996 -0.56771087646 9.0179100037 0.35894870758 -1.9003067017 
8.2033557892 -1.2371935844 4.8541316986 8.2033557892 -2.8333353996 4.0670614243 11.461573601 -0.43912220001 5.6151981354 
10.647018433 -3.0441870689 2.5757055283 14.034695625 -0.43912220001 3.3763961792 13.09068203 -1.2027544975 4.1770858765 
1.6869206429 -2.035264492 -1.5395026207 0.20237636566 -0.43912220001 0.17363548279 1.6869206429 0.35894870758 -1.9509806633 
4.9451379776 0.35894870758 -2.5505418777 4.1305837631 -2.035264492 -1.8884711266 1.6869206429 0.35894870758 -1.9509806633 
4.1305837631 -2.035264492 -1.8884711266 1.6869206429 -2.035264492 -1.5395026207 1.6869206429 0.35894870758 -1.9509806633 
4.1305837631 -2.035264492 -1.8884711266 4.9451379776 0.35894870758 -2.5505418777 5.7596921921 -1.2371935844 -2.1262850761 
5.7596921921 -1.2371935844 -2.1262850761 4.9451379776 0.35894870758 -2.5505418777 6.5742464066 0.35894870758 -2.4687671661 
9.0179100037 0.35894870758 -1.9003067017 5.7596921921 -1.2371935844 -2.1262850761 6.5742464066 0.35894870758 -2.4687671661 
4.9451379776 -1.2371935844 3.3329362869 6.5742464066 -2.035264492 3.9278736115 7.3888015747 -0.43912220001 4.7400150299 
7.3888015747 -0.43912220001 4.7400150299 6.5742464066 -2.035264492 3.9278736115 8.2033557892 -1.2371935844 4.8541316986 
9.8324642181 -1.2371935844 -0.75466585159 13.09068203 1.1570196152 0.23319339752 11.899891853 -1.2371935844 0.97432518005 
11.899891853 -1.2371935844 0.97432518005 13.09068203 1.1570196152 0.23319339752 13.905236244 0.35894870758 1.7123327255 
11.899891853 -1.2371935844 0.97432518005 14.034695625 -0.43912220001 3.3763961792 10.647018433 -3.0441870689 2.5757055283 
13.09068203 -1.2027544975 4.1770858765 13.905236244 -0.16651344299 4.9777755737 11.461573601 -1.4233036041 4.9777755737 
14.034695625 -0.43912220001 3.3763961792 14.03680706 -0.43912220001 4.1770858765 13.09068203 -1.2027544975 4.1770858765 
14.03680706 -0.43912220001 4.1770858765 13.905236244 -0.16651344299 4.9777755737 13.09068203 -1.2027544975 4.1770858765 
0.20237636566 -0.43912220001 0.17363548279 1.6869206429 -1.2371935844 1.6822166443 0.16210508347 0.35894870758 0.17363548279 
1.6869206429 -1.2371935844 1.6822166443 1.6869206429 1.1570196152 1.6924591064 0.16210508347 0.35894870758 0.17363548279 
3.3160290718 -2.035264492 2.1030244827 1.6869206429 1.1570196152 1.6924591064 1.6869206429 -1.2371935844 1.6822166443 
4.9451379776 -1.2371935844 3.3329362869 6.5742464066 1.1570196152 4.4631986618 1.6869206429 1.1570196152 1.6924591064 
3.3160290718 -2.035264492 2.1030244827 4.9451379776 -1.2371935844 3.3329362869 1.6869206429 1.1570196152 1.6924591064 
7.3888015747 -0.43912220001 4.7400150299 6.5742464066 1.1570196152 4.4631986618 4.9451379776 -1.2371935844 3.3329362869 
8.2033557892 1.9550905228 -2.5800652504 9.0179100037 0.35894870758 -1.9003067017 6.5742464066 0.35894870758 -2.4687671661 
8.2033557892 -1.2371935844 4.8541316986 11.461573601 -0.43912220001 5.6151981354 11.461573601 1.1570196152 6.1470518112 
13.905236244 -0.16651344299 4.9777755737 11.461573601 -0.43912220001 5.6151981354 11.461573601 -1.4233036041 4.9777755737 
13.905236244 0.35894870758 1.7123327255 14.034695625 -0.43912220001 3.3763961792 11.899891853 -1.2371935844 0.97432518005 
14.034695625 -0.43912220001 3.3763961792 13.905236244 0.35894870758 1.7123327255 14.377755165 0.35894870758 2.5757055283 
[...]
CELL_DATA 892
FIELD FieldData 1
GroupIds 1 892 float
0 0 0 0 0 0 0 0 0 
0 0 0 0 0 0 0 0 0 
0 0 0 0 0 0 0 0 0 
0 0 0 0 0 0 0 0 0 
0 0 0 0 0 0 0 0 0 
0 0 0 0 0 0 0 0 0 
0 0 0 0 0 0 0 0 0 
0 0 0 0 0 0 0 0 0 
0 0 0 0 0 0 0 0 0 
0 0 0 0 0 0 0 0 0 
0 0 0 0 0 0 0 0 0 
0 0 0 0 0 0 0 0 0 
0 0 0 0 0 0 0 0 0 
0 0 0 0 0 0 0 0 0 
0 0 0 0 0 0 0 0 0 
0 0 0 0 0 0 0 0 0 
0 0 0 0 0 0 0 0 0 
0 0 0 0 0 0 0 0 0 
0 0 0 0 0 0 0 0 0 
0 0 0 0 0 0 0 0 0 
0 0 0 0 0 0 0 0 0 
0 0 0 0 0 0 0 0 0 
0 0 0 0 0 0 0 0 0 
0 0 0 0 0 0 0 0 0 
0 0 0 0 0 0 0 0 0 
0 0 0 0 0 0 0 0 0 
0 0 0 0 0 0 0 0 0 
0 0 0 0 0 0 0 0 0 
0 0 0 0 0 0 0 0 0 
0 0 0 0 0 0 0 0 0 
0 0 0 0 0 0 0 0 0 
0 0 0 0 0 0 0 0 0 
0 0 0 0 0 0 0 0 0 
0 0 0 0 0 0 0 0 0 
0 0 0 0 0 0 0 0 0 
0 0 0 0 0 0 0 0 0 
0 0 0 0 0 0 0 0 0 
0 0 0 0 0 0 0 0 0 
0 0 0 0 0 0 0 0 0 
0 0 0 0 0 0 0 0 0 
0 0 0 0 0 0 0 0 0 
0 0 0 0 0 0 0 0 0 
0 0 0 0 0 0 0 0 0 
0 0 0 0 0 0 0 0 0 
0 0 0 0 0 0 0 0 0 
0 0 0 0 0 0 0 0 0 
0 0 0 0 0 0 0 0 0 
0 0 0 0 0 0 0 0 0 
0 0 0 0 0 0 0 0 0 
0 0 0 0 0 0 0 0 0 
0 0 0 0 0 0 0 0 0 
0 0 0 0 0 0 0 0 0 
0 0 0 0 0 0 0 0 0 
0 0 0 0 0 0 0 0 0 
0 0 0 0 0 0 0 0 0 
0 0 0 0 0 0 0 0 0 
0 0 0 0 0 0 0 0 0 
0 0 0 0 0 0 0 0 0 
0 0 0 0 0 0 0 0 0 
0 0 0 0 0 0 0 0 0 
0 0 0 0 0 0 0 0 0 
0 0 0 0 0 0 0 0 0 
0 0 0 0 0 0 0 0 0 
0 0 0 0 0 0 0 0 0 
0 0 0 0 0 0 0 0 0 
0 0 0 0 0 0 0 0 0 
0 0 0 0 0 0 0 0 0 
0 0 0 0 0 0 0 0 0 
0 0 0 0 0 0 0 0 0 
0 0 0 0 0 0 0 0 0 
0 0 0 0 0 0 0 0 0 
0 0 0 0 0 0 0 0 0 
0 0 0 0 0 0 0 0 0 
0 0 0 0 0 0 0 0 0 
0 0 0 0 0 0 0 0 0 
0 0 0 0 0 0 0 0 0 
0 0 0 0 0 0 0 0 0 
0 0 0 0 0 0 0 0 0 
0 0 0 0 0 0 0 0 0 
0 0 0 0 0 0 0 0 0 
0 0 0 0 0 0 0 0 0 
0 0 0 0 0 0 0 0 0 
0 0 0 0 0 0 0 0 0 
0 0 0 0 0 0 0 0 0 
0 0 0 0 0 0 0 0 0 
0 0 0 0 0 0 0 0 0 
0 0 0 0 0 0 0 0 0 
0 0 0 0 0 0 0 0 0 
0 0 0 0 0 0 0 0 0 
0 0 0 0 0 0 0 0 0 
0 0 0 0 0 0 0 0 0 
0 0 0 0 0 0 0 0 0 
0 0 0 0 0 0 0 0 0 
0 0 0 0 0 0 0 0 0 
0 0 0 0 0 0 0 0 0 
0 0 0 0 0 0 0 0 0 
0 0 0 0 0 0 0 0 0 
0 0 0 0 0 0 0 0 0 
0 0 0 0 0 0 0 0 0 
0 
POINT_DATA 2676
NORMALS Normals float
-0.328054 -0.929024 -0.171157 -0.328054 -0.929024 -0.171157 -0.328054 -0.929024 -0.171157 
-0.320136 -0.9066 0.274935 -0.320136 -0.9066 0.274935 -0.320136 -0.9066 0.274935 
-0.0181779 -0.76552 -0.643155 -0.0181779 -0.76552 -0.643155 -0.0181779 -0.76552 -0.643155 
-0.118306 -0.917992 -0.378542 -0.118306 -0.917992 -0.378542 -0.118306 -0.917992 -0.378542 
-0.323757 -0.794358 -0.513981 -0.323757 -0.794358 -0.513981 -0.323757 -0.794358 -0.513981 
-0.296181 -0.914026 0.277187 -0.296181 -0.914026 0.277187 -0.296181 -0.914026 0.277187 
-0.125064 -0.970433 -0.206442 -0.125064 -0.970433 -0.206442 -0.125064 -0.970433 -0.206442 
-0.256426 -0.943268 0.21093 -0.256426 -0.943268 0.21093 -0.256426 -0.943268 0.21093 
0.206085 -0.821555 -0.531579 0.206085 -0.821555 -0.531579 0.206085 -0.821555 -0.531579 
-0.363322 -0.66397 0.65356 -0.363322 -0.66397 0.65356 -0.363322 -0.66397 0.65356 
0.210562 -0.843512 -0.494116 0.210562 -0.843512 -0.494116 0.210562 -0.843512 -0.494116 
0.123647 -0.970607 -0.206479 0.123647 -0.970607 -0.206479 0.123647 -0.970607 -0.206479 
0.122722 -0.963346 -0.238547 0.122722 -0.963346 -0.238547 0.122722 -0.963346 -0.238547 
-0.0263544 -0.975559 0.218151 -0.0263544 -0.975559 0.218151 -0.0263544 -0.975559 0.218151 
-0.024947 -0.92346 0.382882 -0.024947 -0.92346 0.382882 -0.024947 -0.92346 0.382882 
0.466574 -0.763182 -0.44706 0.466574 -0.763182 -0.44706 0.466574 -0.763182 -0.44706 
0.100286 -0.893147 0.438443 0.100286 -0.893147 0.438443 0.100286 -0.893147 0.438443 
0.510336 -0.834763 -0.206707 0.510336 -0.834763 -0.206707 0.510336 -0.834763 -0.206707 
0.410817 -0.902648 0.128283 0.410817 -0.902648 0.128283 0.410817 -0.902648 0.128283 
-0.213799 -0.609804 -0.76317 -0.213799 -0.609804 -0.76317 -0.213799 -0.609804 -0.76317 
-0.326099 -0.930111 -0.168978 -0.326099 -0.930111 -0.168978 -0.326099 -0.930111 -0.168978 
-0.390088 -0.795733 0.463293 -0.390088 -0.795733 0.463293 -0.390088 -0.795733 0.463293 
-0.25919 -0.552159 0.792427 -0.25919 -0.552159 0.792427 -0.25919 -0.552159 0.792427 
-0.11935 -0.582173 -0.804258 -0.11935 -0.582173 -0.804258 -0.11935 -0.582173 -0.804258 
-0.417548 -0.519475 0.74552 -0.417548 -0.519475 0.74552 -0.417548 -0.519475 0.74552 
-0.415352 -0.5224 0.744702 -0.415352 -0.5224 0.744702 -0.415352 -0.5224 0.744702 
0.256404 -0.680027 -0.686892 0.256404 -0.680027 -0.686892 0.256404 -0.680027 -0.686892 
-0.312624 -0.496983 0.80949 -0.312624 -0.496983 0.80949 -0.312624 -0.496983 0.80949 
0.0812614 -0.804222 0.588748 0.0812614 -0.804222 0.588748 0.0812614 -0.804222 0.588748 
0.00433625 -0.712145 0.702019 0.00433625 -0.712145 0.702019 0.00433625 -0.712145 0.702019 
0.496425 -0.835397 -0.235956 0.496425 -0.835397 -0.235956 0.496425 -0.835397 -0.235956 
0.487719 -0.843363 0.22554 0.487719 -0.843363 0.22554 0.487719 -0.843363 0.22554 
-0.393033 -0.355057 0.848209 -0.393033 -0.355057 0.848209 -0.393033 -0.355057 0.848209 
-0.116143 -0.570144 -0.813293 -0.116143 -0.570144 -0.813293 -0.116143 -0.570144 -0.813293 
0.29332 -0.497879 -0.816137 0.29332 -0.497879 -0.816137 0.29332 -0.497879 -0.816137 
0.0758425 -0.423776 -0.902586 0.0758425 -0.423776 -0.902586 0.0758425 -0.423776 -0.902586 
0.200183 -0.510245 -0.836407 0.200183 -0.510245 -0.836407 0.200183 -0.510245 -0.836407 
-0.28143 -0.424386 0.860636 -0.28143 -0.424386 0.860636 -0.28143 -0.424386 0.860636 
0.519361 -0.601219 -0.607289 0.519361 -0.601219 -0.607289 0.519361 -0.601219 -0.607289 
-0.0194169 -0.52412 0.851423 -0.0194169 -0.52412 0.851423 -0.0194169 -0.52412 0.851423 
0.520295 -0.585009 -0.622139 0.520295 -0.585009 -0.622139 0.520295 -0.585009 -0.622139 
0.495096 -0.595184 -0.632959 0.495096 -0.595184 -0.632959 0.495096 -0.595184 -0.632959 
0.329868 -0.761726 0.557638 0.329868 -0.761726 0.557638 0.329868 -0.761726 0.557638 
0.0184784 -0.543519 0.839194 0.0184784 -0.543519 0.839194 0.0184784 -0.543519 0.839194 
0.632355 -0.711008 -0.307563 0.632355 -0.711008 -0.307563 0.632355 -0.711008 -0.307563 
0.363784 -0.76671 0.528978 0.363784 -0.76671 0.528978 0.363784 -0.76671 0.528978 
-0.843857 -0.334946 -0.419185 -0.843857 -0.334946 -0.419185 -0.843857 -0.334946 -0.419185 
-0.886031 -0.456159 -0.0828727 -0.886031 -0.456159 -0.0828727 -0.886031 -0.456159 -0.0828727 
-0.75131 -0.3868 0.534714 -0.75131 -0.3868 0.534714 -0.75131 -0.3868 0.534714 
-1 -0 0 -1 -0 0 -1 -0 0 
-0.461638 -0.327898 0.824241 -0.461638 -0.327898 0.824241 -0.461638 -0.327898 0.824241 
0.269841 -0.428763 -0.862177 0.269841 -0.428763 -0.862177 0.269841 -0.428763 -0.862177 
0.329019 -0.434046 -0.83866 0.329019 -0.434046 -0.83866 0.329019 -0.434046 -0.83866 
-0.100656 -0.440016 0.892331 -0.100656 -0.440016 0.892331 -0.100656 -0.440016 0.892331 
0.613636 -0.789054 -0.0290572 0.613636 -0.789054 -0.0290572 0.613636 -0.789054 -0.0290572 
-0.796965 -0.10231 -0.595298 -0.796965 -0.10231 -0.595298 -0.796965 -0.10231 -0.595298 
-0.177099 -0.205885 -0.962417 -0.177099 -0.205885 -0.962417 -0.177099 -0.205885 -0.962417 
-0.139369 -0.167727 -0.975932 -0.139369 -0.167727 -0.975932 -0.139369 -0.167727 -0.975932 
-0.0121695 -0.262659 -0.964812 -0.0121695 -0.262659 -0.964812 -0.0121695 -0.262659 -0.964812 
0.0487499 -0.233265 -0.97119 0.0487499 -0.233265 -0.97119 0.0487499 -0.233265 -0.97119 
0.215506 -0.308756 -0.926405 0.215506 -0.308756 -0.926405 0.215506 -0.308756 -0.926405 
-0.429778 -0.225536 0.874313 -0.429778 -0.225536 0.874313 -0.429778 -0.225536 0.874313 
-0.378345 -0.259088 0.888667 -0.378345 -0.259088 0.888667 -0.378345 -0.259088 0.888667 
0.560564 -0.486292 -0.67029 0.560564 -0.486292 -0.67029 0.560564 -0.486292 -0.67029 
0.619032 -0.496299 -0.608676 0.619032 -0.496299 -0.608676 0.619032 -0.496299 -0.608676 
0.62407 -0.713993 -0.317413 0.62407 -0.713993 -0.317413 0.62407 -0.713993 -0.317413 
0.377218 -0.73345 0.565471 0.377218 -0.73345 0.565471 0.377218 -0.73345 0.565471 
0.628065 -0.778159 -0.00165622 0.628065 -0.778159 -0.00165622 0.628065 -0.778159 -0.00165622 
0.589394 -0.730247 0.345476 0.589394 -0.730247 0.345476 0.589394 -0.730247 0.345476 
-0.721856 -0.0364254 0.691084 -0.721856 -0.0364254 0.691084 -0.721856 -0.0364254 0.691084 
-0.704912 -0.00303434 0.709288 -0.704912 -0.00303434 0.709288 -0.704912 -0.00303434 0.709288 
-0.251995 -0.00413991 0.96772 -0.251995 -0.00413991 0.96772 -0.251995 -0.00413991 0.96772 
-0.491797 -0.0748863 0.867484 -0.491797 -0.0748863 0.867484 -0.491797 -0.0748863 0.867484 
-0.53965 -0.169334 0.824684 -0.53965 -0.169334 0.824684 -0.53965 -0.169334 0.824684 
-0.474626 -0.0903717 0.875536 -0.474626 -0.0903717 0.875536 -0.474626 -0.0903717 0.875536 
0.21707 -0.28662 -0.933129 0.21707 -0.28662 -0.933129 0.21707 -0.28662 -0.933129 
-0.142698 -0.312889 0.939009 -0.142698 -0.312889 0.939009 -0.142698 -0.312889 0.939009 
0.269257 -0.523535 0.808339 0.269257 -0.523535 0.808339 0.269257 -0.523535 0.808339 
0.658253 -0.657526 -0.366554 0.658253 -0.657526 -0.366554 0.658253 -0.657526 -0.366554 
0.665503 -0.651495 -0.364226 0.665503 -0.651495 -0.364226 0.665503 -0.651495 -0.364226 
-0.80812 -0.0573823 -0.586216 -0.80812 -0.0573823 -0.586216 -0.80812 -0.0573823 -0.586216 
-0.824501 -0.041605 -0.564329 -0.824501 -0.041605 -0.564329 -0.824501 -0.041605 -0.564329 
-0.763443 0.0884318 -0.639793 -0.763443 0.0884318 -0.639793 -0.763443 0.0884318 -0.639793 
-0.180348 -0.0832881 -0.98007 -0.180348 -0.0832881 -0.98007 -0.180348 -0.0832881 -0.98007 
-0.489435 0.123023 0.863318 -0.489435 0.123023 0.863318 -0.489435 0.123023 0.863318 
-0.280268 -0.150494 0.948052 -0.280268 -0.150494 0.948052 -0.280268 -0.150494 0.948052 
-0.365263 -0.0250168 0.930568 -0.365263 -0.0250168 0.930568 -0.365263 -0.0250168 0.930568 
0.468242 -0.344933 -0.813493 0.468242 -0.344933 -0.813493 0.468242 -0.344933 -0.813493 
-0.247935 -0.176949 0.95248 -0.247935 -0.176949 0.95248 -0.247935 -0.176949 0.95248 
0.270743 -0.491428 0.827766 0.270743 -0.491428 0.827766 0.270743 -0.491428 0.827766 
0.068035 -0.315392 0.94652 0.068035 -0.315392 0.94652 0.068035 -0.315392 0.94652 
0.526161 -0.434117 0.73123 0.526161 -0.434117 0.73123 0.526161 -0.434117 0.73123 
0.91783 -0.396967 -0.00242034 0.91783 -0.396967 -0.00242034 0.91783 -0.396967 -0.00242034 
0.791791 -0.597024 -0.128956 0.791791 -0.597024 -0.128956 0.791791 -0.597024 -0.128956 
0.756834 -0.570666 0.318658 0.756834 -0.570666 0.318658 0.756834 -0.570666 0.318658 
0.75103 -0.619649 0.228011 0.75103 -0.619649 0.228011 0.75103 -0.619649 0.228011 
-0.745976 0.25244 0.616274 -0.745976 0.25244 0.616274 -0.745976 0.25244 0.616274 
-0.250316 0.0660612 -0.965908 -0.250316 0.0660612 -0.965908 -0.250316 0.0660612 -0.965908 
-0.308638 0.130233 -0.942222 -0.308638 0.130233 -0.942222 -0.308638 0.130233 -0.942222 
0.0499533 -0.0845709 -0.995165 0.0499533 -0.0845709 -0.995165 0.0499533 -0.0845709 -0.995165 
0.351286 -0.209366 -0.912559 0.351286 -0.209366 -0.912559 0.351286 -0.209366 -0.912559 
0.525697 -0.322574 -0.787139 0.525697 -0.322574 -0.787139 0.525697 -0.322574 -0.787139 
0.499514 -0.353435 -0.790929 0.499514 -0.353435 -0.790929 0.499514 -0.353435 -0.790929 
0.722882 -0.357782 -0.591129 0.722882 -0.357782 -0.591129 0.722882 -0.357782 -0.591129 
0.78513 -0.446018 -0.429697 0.78513 -0.446018 -0.429697 0.78513 -0.446018 -0.429697 
0.848796 -0.482186 -0.216893 0.848796 -0.482186 -0.216893 0.848796 -0.482186 -0.216893 
-0.801177 0.355075 -0.481703 -0.801177 0.355075 -0.481703 -0.801177 0.355075 -0.481703 
-0.899554 0.402804 -0.168969 -0.899554 0.402804 -0.168969 -0.899554 0.402804 -0.168969 
-0.902276 0.399881 -0.161223 -0.902276 0.399881 -0.161223 -0.902276 0.399881 -0.161223 
-0.836644 0.374634 0.399594 -0.836644 0.374634 0.399594 -0.836644 0.374634 0.399594 
-0.527854 0.321944 0.785953 -0.527854 0.321944 0.785953 -0.527854 0.321944 0.785953 
0.00305566 -0.131905 -0.991258 0.00305566 -0.131905 -0.991258 0.00305566 -0.131905 -0.991258 
0.0805114 -0.150877 -0.985269 0.0805114 -0.150877 -0.985269 0.0805114 -0.150877 -0.985269 
-0.0472035 0.0315969 0.998385 -0.0472035 0.0315969 0.998385 -0.0472035 0.0315969 0.998385 
0.56491 -0.381656 0.731584 0.56491 -0.381656 0.731584 0.56491 -0.381656 0.731584 
0.729881 -0.410197 -0.546821 0.729881 -0.410197 -0.546821 0.729881 -0.410197 -0.546821 
0.882322 -0.386979 0.267871 0.882322 -0.386979 0.267871 0.882322 -0.386979 0.267871 
-0.654871 0.441867 -0.613104 -0.654871 0.441867 -0.613104 -0.654871 0.441867 -0.613104 
-0.739737 0.646765 0.185697 -0.739737 0.646765 0.185697 -0.739737 0.646765 0.185697 
-0.721755 0.631043 0.284351 -0.721755 0.631043 0.284351 -0.721755 0.631043 0.284351 
-0.419081 0.364462 -0.831588 -0.419081 0.364462 -0.831588 -0.419081 0.364462 -0.831588 
-0.590552 0.659938 0.464467 -0.590552 0.659938 0.464467 -0.590552 0.659938 0.464467 
-0.521727 0.348808 0.778546 -0.521727 0.348808 0.778546 -0.521727 0.348808 0.778546 
-0.443218 0.155064 0.8829 -0.443218 0.155064 0.8829 -0.443218 0.155064 0.8829 
-0.381957 0.080226 0.920691 -0.381957 0.080226 0.920691 -0.381957 0.080226 0.920691 
0.349994 -0.200866 -0.914963 0.349994 -0.200866 -0.914963 0.349994 -0.200866 -0.914963 
-0.046745 -0.142513 0.988689 -0.046745 -0.142513 0.988689 -0.046745 -0.142513 0.988689 
0.528942 -0.337126 -0.778824 0.528942 -0.337126 -0.778824 0.528942 -0.337126 -0.778824 
0.286689 -0.0251034 0.957695 0.286689 -0.0251034 0.957695 0.286689 -0.0251034 0.957695 
0.914289 -0.40107 -0.0567265 0.914289 -0.40107 -0.0567265 0.914289 -0.40107 -0.0567265 
0.882218 -0.387001 0.26818 0.882218 -0.387001 0.26818 0.882218 -0.387001 0.26818 
0.806834 -0.35387 0.47307 0.806834 -0.35387 0.47307 0.806834 -0.35387 0.47307 
-0.620351 0.546167 0.562909 -0.620351 0.546167 0.562909 -0.620351 0.546167 0.562909 
-0.386789 0.0788671 -0.91879 -0.386789 0.0788671 -0.91879 -0.386789 0.0788671 -0.91879 
-0.592365 0.329411 0.73525 -0.592365 0.329411 0.73525 -0.592365 0.329411 0.73525 
-0.0907978 0.0111992 -0.995806 -0.0907978 0.0111992 -0.995806 -0.0907978 0.0111992 -0.995806 
-0.442524 0.154609 0.883328 -0.442524 0.154609 0.883328 -0.442524 0.154609 0.883328 
-0.23183 0.049705 0.971486 -0.23183 0.049705 0.971486 -0.23183 0.049705 0.971486 
0.23694 -0.177693 0.955136 0.23694 -0.177693 0.955136 0.23694 -0.177693 0.955136 
0.732001 -0.406368 -0.546845 0.732001 -0.406368 -0.546845 0.732001 -0.406368 -0.546845 
-0.602796 0.570302 -0.558026 -0.602796 0.570302 -0.558026 -0.602796 0.570302 -0.558026 
-0.727457 0.58672 -0.355761 -0.727457 0.58672 -0.355761 -0.727457 0.58672 -0.355761 
-0.719406 0.680625 0.138586 -0.719406 0.680625 0.138586 -0.719406 0.680625 0.138586 
-0.653138 0.693578 0.303909 -0.653138 0.693578 0.303909 -0.653138 0.693578 0.303909 
-0.542724 0.437726 -0.716831 -0.542724 0.437726 -0.716831 -0.542724 0.437726 -0.716831 
-0.545868 0.292784 0.785051 -0.545868 0.292784 0.785051 -0.545868 0.292784 0.785051 
0.195119 -0.0906957 -0.976577 0.195119 -0.0906957 -0.976577 0.195119 -0.0906957 -0.976577 
0.299067 -0.144045 -0.943297 0.299067 -0.144045 -0.943297 0.299067 -0.144045 -0.943297 
0.672316 -0.126755 0.729331 0.672316 -0.126755 0.729331 0.672316 -0.126755 0.729331 
0.941611 -0.270463 -0.200547 0.941611 -0.270463 -0.200547 0.941611 -0.270463 -0.200547 
-0.190483 0.0935955 0.977219 -0.190483 0.0935955 0.977219 -0.190483 0.0935955 0.977219 
0.136654 -0.0173121 0.990468 0.136654 -0.0173121 0.990468 0.136654 -0.0173121 0.990468 
0.732796 -0.310897 -0.605271 0.732796 -0.310897 -0.605271 0.732796 -0.310897 -0.605271 
0.739052 -0.317476 -0.594148 0.739052 -0.317476 -0.594148 0.739052 -0.317476 -0.594148 
-0.531118 0.783412 -0.322769 -0.531118 0.783412 -0.322769 -0.531118 0.783412 -0.322769 
-0.425281 0.533135 -0.731371 -0.425281 0.533135 -0.731371 -0.425281 0.533135 -0.731371 
-0.707469 0.622604 0.334442 -0.707469 0.622604 0.334442 -0.707469 0.622604 0.334442 
-0.664045 0.493811 0.561422 -0.664045 0.493811 0.561422 -0.664045 0.493811 0.561422 
-0.249487 0.230251 -0.940607 -0.249487 0.230251 -0.940607 -0.249487 0.230251 -0.940607 
-0.61803 0.430378 0.657886 -0.61803 0.430378 0.657886 -0.61803 0.430378 0.657886 
-0.0486001 0.0970004 -0.994097 -0.0486001 0.0970004 -0.994097 -0.0486001 0.0970004 -0.994097 
0.0879804 0.076863 -0.993152 0.0879804 0.076863 -0.993152 0.0879804 0.076863 -0.993152 
0.0389349 0.0970415 -0.994519 0.0389349 0.0970415 -0.994519 0.0389349 0.0970415 -0.994519 
0.2645 -0.0211419 -0.964154 0.2645 -0.0211419 -0.964154 0.2645 -0.0211419 -0.964154 
0.436029 -0.217727 -0.873197 0.436029 -0.217727 -0.873197 0.436029 -0.217727 -0.873197 
0.664727 -0.144144 0.733049 0.664727 -0.144144 0.733049 0.664727 -0.144144 0.733049 
0.916575 -0.348973 -0.195215 0.916575 -0.348973 -0.195215 0.916575 -0.348973 -0.195215 
0.921958 -0.267297 0.28026 0.921958 -0.267297 0.28026 0.921958 -0.267297 0.28026 
-0.70823 0.700548 -0.0874202 -0.70823 0.700548 -0.0874202 -0.70823 0.700548 -0.0874202 
-0.70237 0.624072 0.342361 -0.70237 0.624072 0.342361 -0.70237 0.624072 0.342361 
0.0827407 0.0751079 -0.993737 0.0827407 0.0751079 -0.993737 0.0827407 0.0751079 -0.993737 
-0.406549 0.229311 0.884384 -0.406549 0.229311 0.884384 -0.406549 0.229311 0.884384 
0.283664 -0.0140075 -0.958821 0.283664 -0.0140075 -0.958821 0.283664 -0.0140075 -0.958821 
-0.200198 0.126158 0.971599 -0.200198 0.126158 0.971599 -0.200198 0.126158 0.971599 
0.459971 -0.167359 -0.872019 0.459971 -0.167359 -0.872019 0.459971 -0.167359 -0.872019 
0.597171 -0.249067 -0.762465 0.597171 -0.249067 -0.762465 0.597171 -0.249067 -0.762465 
0.812146 -0.309213 -0.49478 0.812146 -0.309213 -0.49478 0.812146 -0.309213 -0.49478 
0.910787 -0.356944 -0.207504 0.910787 -0.356944 -0.207504 0.910787 -0.356944 -0.207504 
0.946597 -0.274441 0.169223 0.946597 -0.274441 0.169223 0.946597 -0.274441 0.169223 
0.821893 -0.164134 0.545483 0.821893 -0.164134 0.545483 0.821893 -0.164134 0.545483 
-0.42538 0.516722 -0.743001 -0.42538 0.516722 -0.743001 -0.42538 0.516722 -0.743001 
-0.493783 0.663583 -0.561993 -0.493783 0.663583 -0.561993 -0.493783 0.663583 -0.561993 
-0.13187 0.427894 -0.894157 -0.13187 0.427894 -0.894157 -0.13187 0.427894 -0.894157 
0.293532 -0.0599688 -0.954066 0.293532 -0.0599688 -0.954066 0.293532 -0.0599688 -0.954066 
-0.116343 0.286061 0.951122 -0.116343 0.286061 0.951122 -0.116343 0.286061 0.951122 
0.185793 0.0864924 0.978775 0.185793 0.0864924 0.978775 0.185793 0.0864924 0.978775 
0.512636 -0.175453 -0.840489 0.512636 -0.175453 -0.840489 0.512636 -0.175453 -0.840489 
0.600078 -0.0298071 0.799386 0.600078 -0.0298071 0.799386 0.600078 -0.0298071 0.799386 
0.249111 0.08525 0.964715 0.249111 0.08525 0.964715 0.249111 0.08525 0.964715 
-0.492125 0.666765 -0.559677 -0.492125 0.666765 -0.559677 -0.492125 0.666765 -0.559677 
-0.669309 0.594696 0.445379 -0.669309 0.594696 0.445379 -0.669309 0.594696 0.445379 
-0.700746 0.502798 0.506112 -0.700746 0.502798 0.506112 -0.700746 0.502798 0.506112 
-0.157062 0.406025 -0.900264 -0.157062 0.406025 -0.900264 -0.157062 0.406025 -0.900264 
0.027395 0.237093 -0.971101 0.027395 0.237093 -0.971101 0.027395 0.237093 -0.971101 
-0.479612 0.371258 0.795072 -0.479612 0.371258 0.795072 -0.479612 0.371258 0.795072 
-0.424856 0.335345 0.840858 -0.424856 0.335345 0.840858 -0.424856 0.335345 0.840858 
-0.0605408 0.173776 0.982923 -0.0605408 0.173776 0.982923 -0.0605408 0.173776 0.982923 
0.829265 -0.195787 0.523438 0.829265 -0.195787 0.523438 0.829265 -0.195787 0.523438 
0.519398 -0.0920707 0.849558 0.519398 -0.0920707 0.849558 0.519398 -0.0920707 0.849558 
0.906669 -0.38946 0.162085 0.906669 -0.38946 0.162085 0.906669 -0.38946 0.162085 
0.73254 -0.314663 0.603633 0.73254 -0.314663 0.603633 0.73254 -0.314663 0.603633 
-0.653287 0.756954 0.0153931 -0.653287 0.756954 0.0153931 -0.653287 0.756954 0.0153931 
-0.646827 0.749468 0.141111 -0.646827 0.749468 0.141111 -0.646827 0.749468 0.141111 
-0.624914 0.757299 0.189685 -0.624914 0.757299 0.189685 -0.624914 0.757299 0.189685 
-0.248194 0.580237 -0.775709 -0.248194 0.580237 -0.775709 -0.248194 0.580237 -0.775709 
-0.566185 0.444531 0.694137 -0.566185 0.444531 0.694137 -0.566185 0.444531 0.694137 
0.0066763 0.237176 -0.971444 0.0066763 0.237176 -0.971444 0.0066763 0.237176 -0.971444 