# vtk DataFile Version 4.2
3D Slicer output. SPACE=LPS
ASCII
DATASET POLYDATA
POINTS 2460 double
4.8835282326 -4.3752160072 -0.78524017334 6.4795708656 -4.751452446 -0.45837020874 4.8835282326 -4.6052751541 -0.45837020874 
6.4795708656 -4.751452446 -0.45837020874 6.4795708656 -5.1485199928 1.104019165 4.8835282326 -4.6052751541 -0.45837020874 
4.8835282326 -4.6052751541 -0.45837020874 6.4795708656 -5.1485199928 1.104019165 4.8835282326 -4.8578414917 0.32282447815 
4.8835282326 -4.8578414917 0.32282447815 6.4795708656 -5.1485199928 1.104019165 4.8835282326 -4.7068037987 1.104019165 
6.4795708656 -5.1485199928 1.104019165 6.4795708656 -4.7866792679 1.8852128983 4.8835282326 -4.7068037987 1.104019165 
4.2097401619 -3.5828542709 1.8852128983 4.8835282326 -4.7068037987 1.104019165 6.4795708656 -4.7866792679 1.8852128983 
8.0756149292 -4.3897743225 -0.45837020874 7.2775931358 -5.0638961792 0.32282447815 6.4795708656 -4.751452446 -0.45837020874 
6.4795708656 -4.751452446 -0.45837020874 7.2775931358 -5.0638961792 0.32282447815 6.4795708656 -5.1485199928 1.104019165 
7.2775931358 -5.0638961792 0.32282447815 7.2775931358 -5.1480426788 1.104019165 6.4795708656 -5.1485199928 1.104019165 
6.4795708656 -5.1485199928 1.104019165 7.2775931358 -5.1480426788 1.104019165 6.4795708656 -4.7866792679 1.8852128983 
7.2775931358 -5.0638961792 0.32282447815 10.469678879 -4.1512713432 1.8852128983 7.2775931358 -5.1480426788 1.104019165 
7.2775931358 -5.1480426788 1.104019165 10.469678879 -4.1512713432 1.8852128983 8.8736362457 -4.2132892609 2.6664075851 
6.4795708656 -4.7866792679 1.8852128983 7.2775931358 -5.1480426788 1.104019165 8.8736362457 -4.2132892609 2.6664075851 
7.2775931358 -5.0638961792 0.32282447815 8.0756149292 -4.3897743225 -0.45837020874 9.6716575623 -4.2037715912 0.32282447815 
9.6716575623 -4.2037715912 0.32282447815 10.469678879 -4.1512713432 1.8852128983 7.2775931358 -5.0638961792 0.32282447815 
1.6914424896 -3.4213528633 -0.45837020874 4.8835282326 -4.8578414917 0.32282447815 1.6914424896 -3.5106191635 0.32282447815 
1.6914424896 -3.4213528633 -0.45837020874 3.6752371788 -3.5828542709 -1.2395648956 4.8835282326 -4.6052751541 -0.45837020874 
4.8835282326 -4.6052751541 -0.45837020874 4.8835282326 -4.8578414917 0.32282447815 1.6914424896 -3.4213528633 -0.45837020874 
1.6914424896 -3.5106191635 0.32282447815 4.8835282326 -4.8578414917 0.32282447815 4.8835282326 -4.7068037987 1.104019165 
1.6914424896 -3.5106191635 0.32282447815 4.8835282326 -4.7068037987 1.104019165 4.2097401619 -3.5828542709 1.8852128983 
3.6752371788 -3.5828542709 -1.2395648956 4.8835282326 -2.7904925346 -2.013958931 4.8835282326 -4.3752160072 -0.78524017334 
4.8835282326 -4.3752160072 -0.78524017334 4.8835282326 -4.6052751541 -0.45837020874 3.6752371788 -3.5828542709 -1.2395648956 
4.8835282326 -4.3752160072 -0.78524017334 4.8835282326 -2.7904925346 -2.013958931 6.4795708656 -2.7904925346 -2.0996770859 
6.4795708656 -2.7904925346 -2.0996770859 6.4795708656 -4.751452446 -0.45837020874 4.8835282326 -4.3752160072 -0.78524017334 
4.2097401619 -3.5828542709 1.8852128983 6.4795708656 -4.7866792679 1.8852128983 6.4795708656 -3.5828542709 2.8508443832 
6.4795708656 -2.7904925346 -2.0996770859 8.0756149292 -2.7904925346 -1.8547735214 8.0756149292 -4.3897743225 -0.45837020874 
8.0756149292 -4.3897743225 -0.45837020874 6.4795708656 -4.751452446 -0.45837020874 6.4795708656 -2.7904925346 -2.0996770859 
6.4795708656 -3.5828542709 2.8508443832 6.4795708656 -4.7866792679 1.8852128983 8.8736362457 -4.2132892609 2.6664075851 
8.0756149292 -4.3897743225 -0.45837020874 12.065721512 -2.4512004852 -0.45837020874 9.6716575623 -4.2037715912 0.32282447815 
12.065721512 -2.4512004852 -0.45837020874 12.863742828 -2.9403500557 1.104019165 9.6716575623 -4.2037715912 0.32282447815 
10.469678879 -4.1512713432 1.8852128983 11.267700195 -3.551150322 2.6664075851 8.8736362457 -4.2132892609 2.6664075851 
12.863742828 -2.7904925346 2.7797403336 10.469678879 -4.1512713432 1.8852128983 9.6716575623 -4.2037715912 0.32282447815 
1.6914424896 -2.7904925346 -1.1436471939 1.6914424896 -3.4213528633 -0.45837020874 1.0583949089 -2.7904925346 -0.45837020874 
1.6914424896 -3.4213528633 -0.45837020874 1.6914424896 -3.5106191635 0.32282447815 1.0527143478 -2.7904925346 0.32282447815 
1.0583949089 -2.7904925346 -0.45837020874 1.6914424896 -3.4213528633 -0.45837020874 1.0527143478 -2.7904925346 0.32282447815 
1.0527143478 -2.7904925346 0.32282447815 1.6914424896 -3.5106191635 0.32282447815 1.6914424896 -1.9981307983 1.5213603973 
1.6914424896 -3.4213528633 -0.45837020874 1.6914424896 -2.7904925346 -1.1436471939 3.6752371788 -3.5828542709 -1.2395648956 
1.6914424896 -1.9981307983 1.5213603973 1.6914424896 -3.5106191635 0.32282447815 4.2097401619 -3.5828542709 1.8852128983 
1.6914424896 -2.7904925346 -1.1436471939 4.8835282326 -2.7904925346 -2.013958931 3.6752371788 -3.5828542709 -1.2395648956 
8.8736362457 -4.2132892609 2.6664075851 8.8736362457 -1.9981307983 3.836435318 6.4795708656 -3.5828542709 2.8508443832 
8.0756149292 -4.3897743225 -0.45837020874 8.0756149292 -2.7904925346 -1.8547735214 11.267700195 -2.0803127289 -1.2395648956 
12.065721512 -2.4512004852 -0.45837020874 8.0756149292 -4.3897743225 -0.45837020874 11.267700195 -2.0803127289 -1.2395648956 
8.8736362457 -4.2132892609 2.6664075851 11.267700195 -3.551150322 2.6664075851 8.8736362457 -1.9981307983 3.836435318 
8.8736362457 -1.9981307983 3.836435318 11.267700195 -3.551150322 2.6664075851 12.065721512 -1.205769062 4.0813026428 
12.863742828 -2.9403500557 1.104019165 12.863742828 -2.7904925346 2.7797403336 9.6716575623 -4.2037715912 0.32282447815 
12.863742828 -2.7904925346 2.7797403336 11.267700195 -3.551150322 2.6664075851 10.469678879 -4.1512713432 1.8852128983 
14.179748535 -1.9981307983 1.8852128983 12.863742828 -2.7904925346 2.7797403336 12.863742828 -2.9403500557 1.104019165 
13.661764145 -2.2646894455 2.6664075851 12.863742828 -2.7904925346 2.7797403336 14.179748535 -1.9981307983 1.8852128983 
0.3688955307 -0.41340732574 -0.45837020874 1.0583949089 -2.7904925346 -0.45837020874 1.0527143478 -2.7904925346 0.32282447815 
4.2097401619 -3.5828542709 1.8852128983 1.6914424896 -0.41340732574 1.7286224365 1.6914424896 -1.9981307983 1.5213603973 
4.8835282326 -2.7904925346 -2.013958931 1.6914424896 -2.7904925346 -1.1436471939 4.8835282326 -1.9981307983 -2.3528442383 
6.4795708656 -2.7904925346 -2.0996770859 4.8835282326 -2.7904925346 -2.013958931 4.8835282326 -1.9981307983 -2.3528442383 
1.6914424896 -0.41340732574 1.7286224365 4.2097401619 -3.5828542709 1.8852128983 6.4795708656 -3.5828542709 2.8508443832 
8.0756149292 -1.205769062 -2.6998624802 6.4795708656 -2.7904925346 -2.0996770859 4.8835282326 -1.9981307983 -2.3528442383 
6.4795708656 -2.7904925346 -2.0996770859 8.0756149292 -1.205769062 -2.6998624802 8.0756149292 -2.7904925346 -1.8547735214 
12.065721512 -2.4512004852 -0.45837020874 15.257806778 -0.39609622955 0.32282447815 12.863742828 -2.9403500557 1.104019165 
11.267700195 -3.551150322 2.6664075851 12.863742828 -2.7904925346 2.7797403336 12.065721512 -1.205769062 4.0813026428 
15.257806778 -0.39609622955 0.32282447815 14.179748535 -1.9981307983 1.8852128983 12.863742828 -2.9403500557 1.104019165 
12.863742828 -2.7904925346 2.7797403336 13.661764145 -2.2646894455 2.6664075851 12.065721512 -1.205769062 4.0813026428 
1.6914424896 -1.205769062 -1.7776651382 1.6914424896 -2.7904925346 -1.1436471939 1.0583949089 -2.7904925346 -0.45837020874 
1.0583949089 -2.7904925346 -0.45837020874 0.3688955307 -0.41340732574 -0.45837020874 1.6914424896 -1.205769062 -1.7776651382 
4.8835282326 -1.9981307983 -2.3528442383 1.6914424896 -2.7904925346 -1.1436471939 1.6914424896 -1.205769062 -1.7776651382 
6.4795708656 -3.5828542709 2.8508443832 7.2775931358 -0.41340732574 3.6644020081 1.6914424896 -0.41340732574 1.7286224365 
8.8736362457 -1.9981307983 3.836435318 7.2775931358 -0.41340732574 3.6644020081 6.4795708656 -3.5828542709 2.8508443832 
10.469678879 0.37895488739 4.1507415771 7.2775931358 -0.41340732574 3.6644020081 8.8736362457 -1.9981307983 3.836435318 
11.267700195 -2.0803127289 -1.2395648956 8.0756149292 -2.7904925346 -1.8547735214 13.661764145 2.7560396194 -3.3298168182 
13.661764145 2.7560396194 -3.3298168182 8.0756149292 -2.7904925346 -1.8547735214 8.0756149292 -1.205769062 -2.6998624802 
12.065721512 -1.205769062 4.0813026428 11.267700195 -0.41340732574 4.2111377716 8.8736362457 -1.9981307983 3.836435318 
11.267700195 -0.41340732574 4.2111377716 10.469678879 0.37895488739 4.1507415771 8.8736362457 -1.9981307983 3.836435318 
11.267700195 -2.0803127289 -1.2395648956 13.661764145 -0.41683959961 -1.2395648956 12.065721512 -2.4512004852 -0.45837020874 
12.065721512 -2.4512004852 -0.45837020874 13.661764145 -0.41683959961 -1.2395648956 15.257806778 -0.39609622955 0.32282447815 
13.661764145 -2.2646894455 2.6664075851 14.522165298 -0.41340732574 3.4476013184 12.065721512 -1.205769062 4.0813026428 
15.256816864 -0.41340732574 2.6664075851 13.661764145 -2.2646894455 2.6664075851 14.179748535 -1.9981307983 1.8852128983 
1.0527143478 -2.7904925346 0.32282447815 0.33828830719 0.37895488739 0.32282447815 0.3688955307 -0.41340732574 -0.45837020874 
1.6914424896 -1.9981307983 1.5213603973 1.6914424896 -0.41340732574 1.7286224365 0.33828830719 0.37895488739 0.32282447815 
1.0527143478 -2.7904925346 0.32282447815 1.6914424896 -1.9981307983 1.5213603973 0.33828830719 0.37895488739 0.32282447815 
4.8835282326 -1.9981307983 -2.3528442383 1.6914424896 -1.205769062 -1.7776651382 4.8835282326 -0.41340732574 -2.767416954 
4.8835282326 -0.41340732574 -2.767416954 7.2775931358 1.1713161469 -3.4346570969 8.0756149292 -1.205769062 -2.6998624802 
8.0756149292 -1.205769062 -2.6998624802 4.8835282326 -1.9981307983 -2.3528442383 4.8835282326 -0.41340732574 -2.767416954 
12.863742828 3.5484018326 -3.8214330673 13.661764145 2.7560396194 -3.3298168182 8.0756149292 -1.205769062 -2.6998624802 
[...]
CELL_DATA 820
FIELD FieldData 1
GroupIds 1 820 float
0 0 0 0 0 0 0 0 0 
0 0 0 0 0 0 0 0 0 
0 0 0 0 0 0 0 0 0 
0 0 0 0 0 0 0 0 0 
0 0 0 0 0 0 0 0 0 
0 0 0 0 0 0 0 0 0 
0 0 0 0 0 0 0 0 0 
0 0 0 0 0 0 0 0 0 
0 0 0 0 0 0 0 0 0 
0 0 0 0 0 0 0 0 0 
0 0 0 0 0 0 0 0 0 
0 0 0 0 0 0 0 0 0 
0 0 0 0 0 0 0 0 0 
0 0 0 0 0 0 0 0 0 
0 0 0 0 0 0 0 0 0 
0 0 0 0 0 0 0 0 0 
0 0 0 0 0 0 0 0 0 
0 0 0 0 0 0 0 0 0 
0 0 0 0 0 0 0 0 0 
0 0 0 0 0 0 0 0 0 
0 0 0 0 0 0 0 0 0 
0 0 0 0 0 0 0 0 0 
0 0 0 0 0 0 0 0 0 
0 0 0 0 0 0 0 0 0 
0 0 0 0 0 0 0 0 0 
0 0 0 0 0 0 0 0 0 
0 0 0 0 0 0 0 0 0 
0 0 0 0 0 0 0 0 0 
0 0 0 0 0 0 0 0 0 
0 0 0 0 0 0 0 0 0 
0 0 0 0 0 0 0 0 0 
0 0 0 0 0 0 0 0 0 
0 0 0 0 0 0 0 0 0 
0 0 0 0 0 0 0 0 0 
0 0 0 0 0 0 0 0 0 
0 0 0 0 0 0 0 0 0 
0 0 0 0 0 0 0 0 0 
0 0 0 0 0 0 0 0 0 
0 0 0 0 0 0 0 0 0 
0 0 0 0 0 0 0 0 0 
0 0 0 0 0 0 0 0 0 
0 0 0 0 0 0 0 0 0 
0 0 0 0 0 0 0 0 0 
0 0 0 0 0 0 0 0 0 
0 0 0 0 0 0 0 0 0 
0 0 0 0 0 0 0 0 0 
0 0 0 0 0 0 0 0 0 
0 0 0 0 0 0 0 0 0 
0 0 0 0 0 0 0 0 0 
0 0 0 0 0 0 0 0 0 
0 0 0 0 0 0 0 0 0 
0 0 0 0 0 0 0 0 0 
0 0 0 0 0 0 0 0 0 
0 0 0 0 0 0 0 0 0 
0 0 0 0 0 0 0 0 0 
0 0 0 0 0 0 0 0 0 
0 0 0 0 0 0 0 0 0 
0 0 0 0 0 0 0 0 0 
0 0 0 0 0 0 0 0 0 
0 0 0 0 0 0 0 0 0 
0 0 0 0 0 0 0 0 0 
0 0 0 0 0 0 0 0 0 
0 0 0 0 0 0 0 0 0 
0 0 0 0 0 0 0 0 0 
0 0 0 0 0 0 0 0 0 
0 0 0 0 0 0 0 0 0 
0 0 0 0 0 0 0 0 0 
0 0 0 0 0 0 0 0 0 
0 0 0 0 0 0 0 0 0 
0 0 0 0 0 0 0 0 0 
0 0 0 0 0 0 0 0 0 
0 0 0 0 0 0 0 0 0 
0 0 0 0 0 0 0 0 0 
0 0 0 0 0 0 0 0 0 
0 0 0 0 0 0 0 0 0 
0 0 0 0 0 0 0 0 0 
0 0 0 0 0 0 0 0 0 
0 0 0 0 0 0 0 0 0 
0 0 0 0 0 0 0 0 0 
0 0 0 0 0 0 0 0 0 
0 0 0 0 0 0 0 0 0 
0 0 0 0 0 0 0 0 0 
0 0 0 0 0 0 0 0 0 
0 0 0 0 0 0 0 0 0 
0 0 0 0 0 0 0 0 0 
0 0 0 0 0 0 0 0 0 
0 0 0 0 0 0 0 0 0 
0 0 0 0 0 0 0 0 0 
0 0 0 0 0 0 0 0 0 
0 0 0 0 0 0 0 0 0 
0 0 0 0 0 0 0 0 0 
0 
POINT_DATA 2460
NORMALS Normals float
-0.0746873 -0.815476 -0.573952 -0.0746873 -0.815476 -0.573952 -0.0746873 -0.815476 -0.573952 
-0.0884179 -0.965395 -0.245347 -0.0884179 -0.965395 -0.245347 -0.0884179 -0.965395 -0.245347 
-0.0227153 -0.951261 -0.30755 -0.0227153 -0.951261 -0.30755 -0.0227153 -0.951261 -0.30755 
-0.262217 -0.947463 0.183184 -0.262217 -0.947463 0.183184 -0.262217 -0.947463 0.183184 
-0.243564 -0.880063 0.407636 -0.243564 -0.880063 0.407636 -0.243564 -0.880063 0.407636 
-0.354024 -0.667518 0.655048 -0.354024 -0.667518 0.655048 -0.354024 -0.667518 0.655048 
0.188184 -0.830433 -0.524374 0.188184 -0.830433 -0.524374 0.188184 -0.830433 -0.524374 
-0.137037 -0.960047 -0.243988 -0.137037 -0.960047 -0.243988 -0.137037 -0.960047 -0.243988 
0.000594681 -0.994249 -0.107096 0.000594681 -0.994249 -0.107096 0.000594681 -0.994249 -0.107096 
0.000542728 -0.907388 0.420293 0.000542728 -0.907388 0.420293 0.000542728 -0.907388 0.420293 
0.319078 -0.942278 -0.101498 0.319078 -0.942278 -0.101498 0.319078 -0.942278 -0.101498 
0.202915 -0.917634 0.341721 0.202915 -0.917634 0.341721 0.202915 -0.917634 0.341721 
0.0585778 -0.881898 0.467787 0.0585778 -0.881898 0.467787 0.0585778 -0.881898 0.467787 
0.306388 -0.852797 -0.422923 0.306388 -0.852797 -0.422923 0.306388 -0.852797 -0.422923 
0.334799 -0.931878 -0.139692 0.334799 -0.931878 -0.139692 0.334799 -0.931878 -0.139692 
-0.386701 -0.916243 -0.104698 -0.386701 -0.916243 -0.104698 -0.386701 -0.916243 -0.104698 
-0.286323 -0.771984 -0.567503 -0.286323 -0.771984 -0.567503 -0.286323 -0.771984 -0.567503 
-0.332792 -0.897271 -0.290095 -0.332792 -0.897271 -0.290095 -0.332792 -0.897271 -0.290095 
-0.382812 -0.907029 0.175367 -0.382812 -0.907029 0.175367 -0.382812 -0.907029 0.175367 
-0.403834 -0.672879 0.6198 -0.403834 -0.672879 0.6198 -0.403834 -0.672879 0.6198 
-0.104102 -0.609416 -0.785986 -0.104102 -0.609416 -0.785986 -0.104102 -0.609416 -0.785986 
-0.304645 -0.778888 -0.548201 -0.304645 -0.778888 -0.548201 -0.304645 -0.778888 -0.548201 
-0.0424052 -0.612194 -0.789569 -0.0424052 -0.612194 -0.789569 -0.0424052 -0.612194 -0.789569 
0.0057478 -0.641828 -0.766827 0.0057478 -0.641828 -0.766827 0.0057478 -0.641828 -0.766827 
-0.314961 -0.593865 0.740354 -0.314961 -0.593865 0.740354 -0.314961 -0.593865 0.740354 
0.11482 -0.653363 -0.748287 0.11482 -0.653363 -0.748287 0.11482 -0.653363 -0.748287 
0.143932 -0.635155 -0.758855 0.143932 -0.635155 -0.758855 0.143932 -0.635155 -0.758855 
-0.104106 -0.622311 0.775817 -0.104106 -0.622311 0.775817 -0.104106 -0.622311 0.775817 
0.361591 -0.744252 -0.561553 0.361591 -0.744252 -0.561553 0.361591 -0.744252 -0.561553 
0.421822 -0.781289 -0.460058 0.421822 -0.781289 -0.460058 0.421822 -0.781289 -0.460058 
0.241426 -0.872913 0.423953 0.241426 -0.872913 0.423953 0.241426 -0.872913 0.423953 
0.547795 -0.79744 -0.253001 0.547795 -0.79744 -0.253001 0.547795 -0.79744 -0.253001 
-0.591279 -0.593329 -0.546214 -0.591279 -0.593329 -0.546214 -0.591279 -0.593329 -0.546214 
-0.745982 -0.661661 -0.0756073 -0.745982 -0.661661 -0.0756073 -0.745982 -0.661661 -0.0756073 
-0.705873 -0.70832 -0.00513287 -0.705873 -0.70832 -0.00513287 -0.705873 -0.70832 -0.00513287 
-0.573582 -0.508748 0.642012 -0.573582 -0.508748 0.642012 -0.573582 -0.508748 0.642012 
-0.310465 -0.699359 -0.643824 -0.310465 -0.699359 -0.643824 -0.310465 -0.699359 -0.643824 
-0.450118 -0.554596 0.69987 -0.450118 -0.554596 0.69987 -0.450118 -0.554596 0.69987 
-0.231282 -0.476362 -0.848285 -0.231282 -0.476362 -0.848285 -0.231282 -0.476362 -0.848285 
-0.054785 -0.466343 0.882906 -0.054785 -0.466343 0.882906 -0.054785 -0.466343 0.882906 
0.279858 -0.631431 -0.72317 0.279858 -0.631431 -0.72317 0.279858 -0.631431 -0.72317 
0.329128 -0.677434 -0.657843 0.329128 -0.677434 -0.657843 0.329128 -0.677434 -0.657843 
0.128109 -0.463196 0.876948 0.128109 -0.463196 0.876948 0.128109 -0.463196 0.876948 
0.0673309 -0.532077 0.844015 0.0673309 -0.532077 0.844015 0.0673309 -0.532077 0.844015 
0.349008 -0.933395 0.0834723 0.349008 -0.933395 0.0834723 0.349008 -0.933395 0.0834723 
0.399243 -0.877363 0.266156 0.399243 -0.877363 0.266156 0.399243 -0.877363 0.266156 
0.550987 -0.831197 0.0743328 0.550987 -0.831197 0.0743328 0.550987 -0.831197 0.0743328 
0.556705 -0.826116 0.0872458 0.556705 -0.826116 0.0872458 0.556705 -0.826116 0.0872458 
-0.96039 -0.278572 -0.0069836 -0.96039 -0.278572 -0.0069836 -0.96039 -0.278572 -0.0069836 
-0.219392 -0.126524 0.967398 -0.219392 -0.126524 0.967398 -0.219392 -0.126524 0.967398 
-0.243158 -0.381432 -0.891843 -0.243158 -0.381432 -0.891843 -0.243158 -0.381432 -0.891843 
-0.0493199 -0.392756 -0.918319 -0.0493199 -0.392756 -0.918319 -0.0493199 -0.392756 -0.918319 
-0.378352 -0.256681 0.889362 -0.378352 -0.256681 0.889362 -0.378352 -0.256681 0.889362 
-0.0184449 -0.337821 -0.94103 -0.0184449 -0.337821 -0.94103 -0.0184449 -0.337821 -0.94103 
0.134171 -0.466292 -0.874397 0.134171 -0.466292 -0.874397 0.134171 -0.466292 -0.874397 
0.553082 -0.671746 -0.492806 0.553082 -0.671746 -0.492806 0.553082 -0.671746 -0.492806 
0.207925 -0.556163 0.804643 0.207925 -0.556163 0.804643 0.207925 -0.556163 0.804643 
0.660345 -0.702695 -0.264884 0.660345 -0.702695 -0.264884 0.660345 -0.702695 -0.264884 
0.408083 -0.447885 0.79553 0.408083 -0.447885 0.79553 0.408083 -0.447885 0.79553 
-0.708886 -0.261996 -0.654857 -0.708886 -0.261996 -0.654857 -0.708886 -0.261996 -0.654857 
-0.751616 -0.218014 -0.62253 -0.751616 -0.218014 -0.62253 -0.751616 -0.218014 -0.62253 
-0.251182 -0.359547 -0.898684 -0.251182 -0.359547 -0.898684 -0.251182 -0.359547 -0.898684 
-0.323312 -0.158083 0.932995 -0.323312 -0.158083 0.932995 -0.323312 -0.158083 0.932995 
-0.274399 -0.173685 0.945801 -0.274399 -0.173685 0.945801 -0.274399 -0.173685 0.945801 
-0.141901 -0.0355248 0.989243 -0.141901 -0.0355248 0.989243 -0.141901 -0.0355248 0.989243 
0.268956 -0.491204 -0.828481 0.268956 -0.491204 -0.828481 0.268956 -0.491204 -0.828481 
0.228043 -0.458148 -0.859126 0.228043 -0.458148 -0.859126 0.228043 -0.458148 -0.859126 
-0.0282962 -0.189326 0.981506 -0.0282962 -0.189326 0.981506 -0.0282962 -0.189326 0.981506 
-0.12309 -0.0484157 0.991214 -0.12309 -0.0484157 0.991214 -0.12309 -0.0484157 0.991214 
0.409008 -0.588643 -0.697288 0.409008 -0.588643 -0.697288 0.409008 -0.588643 -0.697288 
0.543695 -0.636582 -0.546954 0.543695 -0.636582 -0.546954 0.543695 -0.636582 -0.546954 
0.364091 -0.500623 0.785376 0.364091 -0.500623 0.785376 0.364091 -0.500623 0.785376 
0.729605 -0.628623 0.269279 0.729605 -0.628623 0.269279 0.729605 -0.628623 0.269279 
-0.959279 -0.216231 0.181738 -0.959279 -0.216231 0.181738 -0.959279 -0.216231 0.181738 
-0.741779 -0.0869712 0.664981 -0.741779 -0.0869712 0.664981 -0.741779 -0.0869712 0.664981 
-0.812215 -0.183082 0.553885 -0.812215 -0.183082 0.553885 -0.812215 -0.183082 0.553885 
-0.230746 -0.246259 -0.941336 -0.230746 -0.246259 -0.941336 -0.230746 -0.246259 -0.941336 
-0.0574798 -0.312403 -0.948209 -0.0574798 -0.312403 -0.948209 -0.0574798 -0.312403 -0.948209 
-0.0423114 -0.252862 -0.966577 -0.0423114 -0.252862 -0.966577 -0.0423114 -0.252862 -0.966577 
0.17285 -0.38769 -0.905439 0.17285 -0.38769 -0.905439 0.17285 -0.38769 -0.905439 
0.357056 -0.513873 -0.780029 0.357056 -0.513873 -0.780029 0.357056 -0.513873 -0.780029 
0.525577 -0.667038 -0.528042 0.525577 -0.667038 -0.528042 0.525577 -0.667038 -0.528042 
0.617009 -0.531611 0.580249 0.617009 -0.531611 0.580249 0.617009 -0.531611 0.580249 
0.782559 -0.604762 0.147864 0.782559 -0.604762 0.147864 0.782559 -0.604762 0.147864 
-0.693159 0.0411919 -0.719607 -0.693159 0.0411919 -0.719607 -0.693159 0.0411919 -0.719607 
-0.993355 0.0590315 -0.098795 -0.993355 0.0590315 -0.098795 -0.993355 0.0590315 -0.098795 
-0.733693 0.0269388 -0.678947 -0.733693 0.0269388 -0.678947 -0.733693 0.0269388 -0.678947 
-0.759791 -0.073738 -0.645973 -0.759791 -0.073738 -0.645973 -0.759791 -0.073738 -0.645973 
-0.269551 -0.109216 -0.956773 -0.269551 -0.109216 -0.956773 -0.269551 -0.109216 -0.956773 
-0.182892 0.139462 0.973191 -0.182892 0.139462 0.973191 -0.182892 0.139462 0.973191 
0.287232 -0.131674 0.948768 0.287232 -0.131674 0.948768 0.287232 -0.131674 0.948768 
0.724711 -0.664713 -0.181525 0.724711 -0.664713 -0.181525 0.724711 -0.664713 -0.181525 
0.861927 -0.41619 0.2896 0.861927 -0.41619 0.2896 0.861927 -0.41619 0.2896 
0.687201 -0.331821 0.646258 0.687201 -0.331821 0.646258 0.687201 -0.331821 0.646258 
-0.655172 0.182013 0.733227 -0.655172 0.182013 0.733227 -0.655172 0.182013 0.733227 
-0.270544 -0.0680841 -0.960297 -0.270544 -0.0680841 -0.960297 -0.270544 -0.0680841 -0.960297 
-0.349469 0.225733 0.909349 -0.349469 0.225733 0.909349 -0.349469 0.225733 0.909349 
-0.323182 0.160547 0.932619 -0.323182 0.160547 0.932619 -0.323182 0.160547 0.932619 
-0.237038 0.194981 0.951733 -0.237038 0.194981 0.951733 -0.237038 0.194981 0.951733 
0.163411 0.00292279 0.986554 0.163411 0.00292279 0.986554 0.163411 0.00292279 0.986554 
-0.013119 0.062853 0.997937 -0.013119 0.062853 0.997937 -0.013119 0.062853 0.997937 
0.114331 0.00294318 0.993438 0.114331 0.00294318 0.993438 0.114331 0.00294318 0.993438 
0.499161 -0.112958 0.859115 0.499161 -0.112958 0.859115 0.499161 -0.112958 0.859115 
0.681832 -0.573549 -0.454034 0.681832 -0.573549 -0.454034 0.681832 -0.573549 -0.454034 
0.742513 -0.624592 -0.241989 0.742513 -0.624592 -0.241989 0.742513 -0.624592 -0.241989 
0.662096 -0.574647 0.481051 0.662096 -0.574647 0.481051 0.662096 -0.574647 0.481051 
-0.881948 0.463113 -0.0877149 -0.881948 0.463113 -0.0877149 -0.881948 0.463113 -0.0877149 
-0.699247 0.303897 -0.647071 -0.699247 0.303897 -0.647071 -0.699247 0.303897 -0.647071 
-0.76736 0.402943 -0.498794 -0.76736 0.402943 -0.498794 -0.76736 0.402943 -0.498794 
-0.869043 0.49382 0.0301136 -0.869043 0.49382 0.0301136 -0.869043 0.49382 0.0301136 
-0.783062 0.444962 0.434538 -0.783062 0.444962 0.434538 -0.783062 0.444962 0.434538 
-0.152332 0.0391834 -0.987552 -0.152332 0.0391834 -0.987552 -0.152332 0.0391834 -0.987552 
-0.484039 0.30397 -0.820554 -0.484039 0.30397 -0.820554 -0.484039 0.30397 -0.820554 
-0.343729 0.28614 0.894413 -0.343729 0.28614 0.894413 -0.343729 0.28614 0.894413 
-0.201377 -0.105784 -0.973785 -0.201377 -0.105784 -0.973785 -0.201377 -0.105784 -0.973785 
-0.121792 0.171294 0.977663 -0.121792 0.171294 0.977663 -0.121792 0.171294 0.977663 
0.114319 0.0146871 0.993336 0.114319 0.0146871 0.993336 0.114319 0.0146871 0.993336 
0.321211 -0.520983 -0.790822 0.321211 -0.520983 -0.790822 0.321211 -0.520983 -0.790822 
0.428254 -0.54352 -0.721931 0.428254 -0.54352 -0.721931 0.428254 -0.54352 -0.721931 
0.687471 -0.555944 -0.467237 0.687471 -0.555944 -0.467237 0.687471 -0.555944 -0.467237 
0.872481 -0.482586 0.0767369 0.872481 -0.482586 0.0767369 0.872481 -0.482586 0.0767369 
-0.227991 0.331737 0.915407 -0.227991 0.331737 0.915407 -0.227991 0.331737 0.915407 
0.0522726 -0.278865 -0.958907 0.0522726 -0.278865 -0.958907 0.0522726 -0.278865 -0.958907 
-0.119991 0.240513 0.963201 -0.119991 0.240513 0.963201 -0.119991 0.240513 0.963201 
-0.00149272 0.242263 0.970209 -0.00149272 0.242263 0.970209 -0.00149272 0.242263 0.970209 
0.490064 -0.220034 0.843458 0.490064 -0.220034 0.843458 0.490064 -0.220034 0.843458 
0.396745 0.0350564 0.917259 0.396745 0.0350564 0.917259 0.396745 0.0350564 0.917259 
0.807901 0.0523738 0.586987 0.807901 0.0523738 0.586987 0.807901 0.0523738 0.586987 
-0.426329 0.543982 -0.722723 -0.426329 0.543982 -0.722723 -0.426329 0.543982 -0.722723 
-0.566326 0.722614 -0.396363 -0.566326 0.722614 -0.396363 -0.566326 0.722614 -0.396363 
-0.364305 0.512722 0.77743 -0.364305 0.512722 0.77743 -0.364305 0.512722 0.77743 
-0.421569 0.197437 -0.885041 -0.421569 0.197437 -0.885041 -0.421569 0.197437 -0.885041 
-0.274469 0.402537 0.873287 -0.274469 0.402537 0.873287 -0.274469 0.402537 0.873287 
-0.152679 -0.0813114 -0.984925 -0.152679 -0.0813114 -0.984925 -0.152679 -0.0813114 -0.984925 
0.0541716 -0.283108 -0.957557 0.0541716 -0.283108 -0.957557 0.0541716 -0.283108 -0.957557 
-0.187709 0.352667 0.916729 -0.187709 0.352667 0.916729 -0.187709 0.352667 0.916729 
-0.199391 0.357343 0.912441 -0.199391 0.357343 0.912441 -0.199391 0.357343 0.912441 
0.343803 -0.406615 -0.846442 0.343803 -0.406615 -0.846442 0.343803 -0.406615 -0.846442 
0.228054 0.132136 0.964641 0.228054 0.132136 0.964641 0.228054 0.132136 0.964641 
0.459787 0.113035 0.880806 0.459787 0.113035 0.880806 0.459787 0.113035 0.880806 
0.741514 -0.131108 0.658003 0.741514 -0.131108 0.658003 0.741514 -0.131108 0.658003 
0.705234 -0.0216292 0.708644 0.705234 -0.0216292 0.708644 0.705234 -0.0216292 0.708644 
0.678053 -0.560458 -0.475533 0.678053 -0.560458 -0.475533 0.678053 -0.560458 -0.475533 
0.910815 -0.409502 0.0522032 0.910815 -0.409502 0.0522032 0.910815 -0.409502 0.0522032 
0.844239 -0.447435 0.295065 0.844239 -0.447435 0.295065 0.844239 -0.447435 0.295065 
-0.42063 0.90555 0.0552212 -0.42063 0.90555 0.0552212 -0.42063 0.90555 0.0552212 
-0.717901 0.69594 0.0169256 -0.717901 0.69594 0.0169256 -0.717901 0.69594 0.0169256 
-0.637484 0.732412 -0.239139 -0.637484 0.732412 -0.239139 -0.637484 0.732412 -0.239139 
-0.477647 0.747275 0.461989 -0.477647 0.747275 0.461989 -0.477647 0.747275 0.461989 
-0.45928 0.635517 0.620629 -0.45928 0.635517 0.620629 -0.45928 0.635517 0.620629 
-0.606923 0.423248 -0.672685 -0.606923 0.423248 -0.672685 -0.606923 0.423248 -0.672685 
-0.643091 0.623418 -0.44473 -0.643091 0.623418 -0.44473 -0.643091 0.623418 -0.44473 
-0.41191 0.287253 -0.864763 -0.41191 0.287253 -0.864763 -0.41191 0.287253 -0.864763 
-0.243297 0.534014 0.809714 -0.243297 0.534014 0.809714 -0.243297 0.534014 0.809714 
-0.139303 -0.132652 -0.981325 -0.139303 -0.132652 -0.981325 -0.139303 -0.132652 -0.981325 
-0.0389542 -0.0314502 -0.998746 -0.0389542 -0.0314502 -0.998746 -0.0389542 -0.0314502 -0.998746 
0.053799 -0.304563 -0.950972 0.053799 -0.304563 -0.950972 0.053799 -0.304563 -0.950972 
-0.115491 0.398337 0.909939 -0.115491 0.398337 0.909939 -0.115491 0.398337 0.909939 
0.0181537 0.279266 0.960042 0.0181537 0.279266 0.960042 0.0181537 0.279266 0.960042 
0.249498 -0.316538 -0.91518 0.249498 -0.316538 -0.91518 0.249498 -0.316538 -0.91518 
0.151854 0.276073 0.949065 0.151854 0.276073 0.949065 0.151854 0.276073 0.949065 
0.541489 -0.505657 -0.67164 0.541489 -0.505657 -0.67164 0.541489 -0.505657 -0.67164 
0.874629 -0.463541 -0.141961 0.874629 -0.463541 -0.141961 0.874629 -0.463541 -0.141961 
-0.466606 0.234777 -0.852736 -0.466606 0.234777 -0.852736 -0.466606 0.234777 -0.852736 
-0.354058 0.795478 0.49179 -0.354058 0.795478 0.49179 -0.354058 0.795478 0.49179 
-0.24632 0.033465 -0.968611 -0.24632 0.033465 -0.968611 -0.24632 0.033465 -0.968611 
-0.517641 0.235532 -0.822541 -0.517641 0.235532 -0.822541 -0.517641 0.235532 -0.822541 
-0.352396 0.615414 0.705041 -0.352396 0.615414 0.705041 -0.352396 0.615414 0.705041 
-0.281032 0.48866 0.825974 -0.281032 0.48866 0.825974 -0.281032 0.48866 0.825974 
-0.282854 0.489481 0.824865 -0.282854 0.489481 0.824865 -0.282854 0.489481 0.824865 
0.11505 -0.247088 -0.962139 0.11505 -0.247088 -0.962139 0.11505 -0.247088 -0.962139 
0.174502 0.297529 0.93863 0.174502 0.297529 0.93863 0.174502 0.297529 0.93863 
0.548293 -0.523727 -0.651985 0.548293 -0.523727 -0.651985 0.548293 -0.523727 -0.651985 
-0.573458 0.673773 -0.466022 -0.573458 0.673773 -0.466022 -0.573458 0.673773 -0.466022 
-0.569528 0.669155 -0.477357 -0.569528 0.669155 -0.477357 -0.569528 0.669155 -0.477357 
-0.0389733 0.00328553 -0.999235 -0.0389733 0.00328553 -0.999235 -0.0389733 0.00328553 -0.999235 
-0.134734 0.149045 -0.979608 -0.134734 0.149045 -0.979608 -0.134734 0.149045 -0.979608 
-0.0644012 -0.00955038 -0.997878 -0.0644012 -0.00955038 -0.997878 -0.0644012 -0.00955038 -0.997878 
0.303387 -0.392309 -0.868361 0.303387 -0.392309 -0.868361 0.303387 -0.392309 -0.868361 
0.639069 -0.184517 0.746689 0.639069 -0.184517 0.746689 0.639069 -0.184517 0.746689 
0.896053 -0.258715 0.36077 0.896053 -0.258715 0.36077 0.896053 -0.258715 0.36077 
0.637145 -0.338405 0.69248 0.637145 -0.338405 0.69248 0.637145 -0.338405 0.69248 
0.793342 -0.598916 -0.109122 0.793342 -0.598916 -0.109122 0.793342 -0.598916 -0.109122 
-0.486753 0.867188 -0.105153 -0.486753 0.867188 -0.105153 -0.486753 0.867188 -0.105153 
-0.489356 0.871826 0.0212033 -0.489356 0.871826 0.0212033 -0.489356 0.871826 0.0212033 
-0.311272 0.869846 0.382725 -0.311272 0.869846 0.382725 -0.311272 0.869846 0.382725 
-0.311396 0.512841 -0.800017 -0.311396 0.512841 -0.800017 -0.311396 0.512841 -0.800017 
-0.176584 0.340132 -0.92365 -0.176584 0.340132 -0.92365 -0.176584 0.340132 -0.92365 
-0.109964 0.487113 0.866388 -0.109964 0.487113 0.866388 -0.109964 0.487113 0.866388 
-0.211889 0.546926 0.809923 -0.211889 0.546926 0.809923 -0.211889 0.546926 0.809923 
-0.146787 -0.342924 -0.927824 -0.146787 -0.342924 -0.927824 -0.146787 -0.342924 -0.927824 
-0.0663025 5.00379e-05 -0.9978 -0.0663025 5.00379e-05 -0.9978 -0.0663025 5.00379e-05 -0.9978 
0.269967 -0.353062 -0.895804 0.269967 -0.353062 -0.895804 0.269967 -0.353062 -0.895804 
0.393465 0.191803 0.899109 0.393465 0.191803 0.899109 0.393465 0.191803 0.899109 
0.164181 0.29999 0.939708 0.164181 0.29999 0.939708 0.164181 0.29999 0.939708 
0.560715 -0.56202 -0.608056 0.560715 -0.56202 -0.608056 0.560715 -0.56202 -0.608056 
0.712711 -0.492142 -0.49984 0.712711 -0.492142 -0.49984 0.712711 -0.492142 -0.49984 
0.739185 -0.558031 -0.377103 0.739185 -0.558031 -0.377103 0.739185 -0.558031 -0.377103 
0.872409 -0.46336 0.155563 0.872409 -0.46336 0.155563 0.872409 -0.46336 0.155563 
-0.466717 0.877975 -0.106461 -0.466717 0.877975 -0.106461 -0.466717 0.877975 -0.106461 
-0.318346 0.581336 -0.748802 -0.318346 0.581336 -0.748802 -0.318346 0.581336 -0.748802 
-0.436078 0.796327 -0.419165 -0.436078 0.796327 -0.419165 -0.436078 0.796327 -0.419165 
-0.421005 0.791983 0.442173 -0.421005 0.791983 0.442173 -0.421005 0.791983 0.442173 
-0.344853 0.64466 0.682269 -0.344853 0.64466 0.682269 -0.344853 0.64466 0.682269 
-0.327781 0.211089 -0.92087 -0.327781 0.211089 -0.92087 -0.327781 0.211089 -0.92087 
-0.689602 0.444101 -0.572034 -0.689602 0.444101 -0.572034 -0.689602 0.444101 -0.572034 
-0.465424 0.205611 -0.860874 -0.465424 0.205611 -0.860874 -0.465424 0.205611 -0.860874 