# vtk DataFile Version 4.2
3D Slicer output. SPACE=LPS
ASCII
DATASET POLYDATA
POINTS 2388 double
7.6951541901 -4.8193016052 0.19987869263 7.6951541901 -5.1817698479 1.9751110077 5.1351747513 -4.8083462715 1.0874948502 
1.721868515 -2.5640130043 1.2692985535 3.4285211563 -4.299726963 0.19987869263 5.1351747513 -4.8083462715 1.0874948502 
5.1351747513 -4.8083462715 1.0874948502 5.1351747513 -4.3216614723 1.9751110077 1.721868515 -2.5640130043 1.2692985535 
3.4285211563 -4.299726963 0.19987869263 3.4285211563 -4.0285758972 -0.68773841858 5.9885005951 -4.3896021843 -0.68773841858 
3.4285211563 -4.299726963 0.19987869263 5.9885005951 -4.3896021843 -0.68773841858 5.9885005951 -4.9350376129 0.19987869263 
5.9885005951 -4.9350376129 0.19987869263 5.1351747513 -4.8083462715 1.0874948502 3.4285211563 -4.299726963 0.19987869263 
5.1351747513 -4.8083462715 1.0874948502 5.9885005951 -4.9350376129 0.19987869263 7.6951541901 -4.8193016052 0.19987869263 
7.6951541901 -5.1817698479 1.9751110077 5.1351747513 -4.3216614723 1.9751110077 5.1351747513 -4.8083462715 1.0874948502 
7.6951541901 -4.6616072655 2.8627281189 5.1351747513 -4.3216614723 1.9751110077 7.6951541901 -5.1817698479 1.9751110077 
5.9885005951 -4.9350376129 0.19987869263 5.9885005951 -4.3896021843 -0.68773841858 7.6951541901 -4.8193016052 0.19987869263 
7.6951541901 -4.8193016052 0.19987869263 10.255133629 -4.2156720161 1.0874948502 7.6951541901 -5.1817698479 1.9751110077 
7.6951541901 -4.8193016052 0.19987869263 9.4018068314 -4.1449375153 0.19987869263 10.255133629 -4.2156720161 1.0874948502 
7.6951541901 -5.1817698479 1.9751110077 11.108459473 -3.9736647606 2.8627281189 7.6951541901 -4.6616072655 2.8627281189 
10.255133629 -4.2156720161 1.0874948502 11.108459473 -3.9736647606 2.8627281189 7.6951541901 -5.1817698479 1.9751110077 
1.721868515 -3.5747385025 0.19987869263 1.721868515 -3.3921575546 -0.68773841858 3.4285211563 -4.299726963 0.19987869263 
1.721868515 -2.5640130043 1.2692985535 1.721868515 -3.5747385025 0.19987869263 3.4285211563 -4.299726963 0.19987869263 
3.4285211563 -4.299726963 0.19987869263 1.721868515 -3.3921575546 -0.68773841858 3.4285211563 -4.0285758972 -0.68773841858 
1.721868515 -2.5640130043 1.2692985535 5.1351747513 -4.3216614723 1.9751110077 5.1351747513 -3.4299840927 2.644867897 
7.6951541901 -2.5640130043 -1.7450351715 5.9885005951 -4.3896021843 -0.68773841858 3.4285211563 -4.0285758972 -0.68773841858 
5.1351747513 -3.4299840927 2.644867897 5.1351747513 -4.3216614723 1.9751110077 7.6951541901 -4.6616072655 2.8627281189 
5.1351747513 -3.4299840927 2.644867897 7.6951541901 -4.6616072655 2.8627281189 6.8418273926 -3.4299840927 3.5199756622 
5.9885005951 -4.3896021843 -0.68773841858 7.6951541901 -2.5640130043 -1.7450351715 8.5484800339 -3.7276906967 -0.68773841858 
7.6951541901 -4.8193016052 0.19987869263 5.9885005951 -4.3896021843 -0.68773841858 8.5484800339 -3.7276906967 -0.68773841858 
9.4018068314 -4.1449375153 0.19987869263 7.6951541901 -4.8193016052 0.19987869263 8.5484800339 -3.7276906967 -0.68773841858 
6.8418273926 -3.4299840927 3.5199756622 7.6951541901 -4.6616072655 2.8627281189 9.4018068314 -2.5640130043 4.4910936356 
10.255133629 -3.7222323418 3.7503442764 7.6951541901 -4.6616072655 2.8627281189 11.108459473 -3.9736647606 2.8627281189 
7.6951541901 -4.6616072655 2.8627281189 10.255133629 -3.7222323418 3.7503442764 9.4018068314 -2.5640130043 4.4910936356 
12.904165268 -2.5640130043 1.0874948502 10.255133629 -4.2156720161 1.0874948502 9.4018068314 -4.1449375153 0.19987869263 
3.4285211563 -4.0285758972 -0.68773841858 1.721868515 -3.3921575546 -0.68773841858 5.1351747513 -1.6980419159 -2.2828330994 
3.4285211563 -4.0285758972 -0.68773841858 5.1351747513 -1.6980419159 -2.2828330994 7.6951541901 -2.5640130043 -1.7450351715 
7.6951541901 -2.5640130043 -1.7450351715 9.4018068314 -0.83207035065 -2.1743335724 8.5484800339 -3.7276906967 -0.68773841858 
11.108459473 -1.6980419159 -1.0133838654 8.5484800339 -3.7276906967 -0.68773841858 9.4018068314 -0.83207035065 -2.1743335724 
8.5484800339 -3.7276906967 -0.68773841858 11.108459473 -1.6980419159 -1.0133838654 9.4018068314 -4.1449375153 0.19987869263 
11.108459473 -1.6980419159 -1.0133838654 12.904165268 -2.5640130043 1.0874948502 9.4018068314 -4.1449375153 0.19987869263 
10.255133629 -4.2156720161 1.0874948502 12.904165268 -2.5640130043 1.0874948502 13.668439865 -2.4864749908 1.9751110077 
13.668439865 -2.4864749908 1.9751110077 11.108459473 -3.9736647606 2.8627281189 10.255133629 -4.2156720161 1.0874948502 
11.108459473 -3.9736647606 2.8627281189 13.668439865 -2.5179171562 3.7503442764 10.255133629 -3.7222323418 3.7503442764 
13.668439865 -2.4864749908 1.9751110077 13.668439865 -2.5179171562 3.7503442764 11.108459473 -3.9736647606 2.8627281189 
0.69065570831 -0.83207035065 -0.68773841858 1.721868515 -3.5747385025 0.19987869263 0.12338161469 0.0339012146 0.19987869263 
1.721868515 -1.6980419159 -1.7031154633 1.721868515 -3.3921575546 -0.68773841858 0.69065570831 -0.83207035065 -0.68773841858 
0.69065570831 -0.83207035065 -0.68773841858 1.721868515 -3.3921575546 -0.68773841858 1.721868515 -3.5747385025 0.19987869263 
1.721868515 -3.5747385025 0.19987869263 1.721868515 -2.5640130043 1.2692985535 0.12338161469 0.0339012146 0.19987869263 
5.1351747513 -1.6980419159 -2.2828330994 1.721868515 -3.3921575546 -0.68773841858 1.721868515 -1.6980419159 -1.7031154633 
5.1351747513 -3.4299840927 2.644867897 1.721868515 -0.83207035065 1.754119873 1.721868515 -2.5640130043 1.2692985535 
5.1351747513 -3.4299840927 2.644867897 5.9885005951 0.0339012146 3.7418746948 1.721868515 -0.83207035065 1.754119873 
5.9885005951 0.0339012146 3.7418746948 5.1351747513 -3.4299840927 2.644867897 6.8418273926 -3.4299840927 3.5199756622 
9.4018068314 -2.5640130043 4.4910936356 8.5484800339 -1.6980419159 4.5768270493 6.8418273926 -3.4299840927 3.5199756622 
9.4018068314 -2.5640130043 4.4910936356 10.255133629 -3.7222323418 3.7503442764 12.815113068 -0.83207035065 5.3988142014 
8.5484800339 -1.6980419159 4.5768270493 9.4018068314 -2.5640130043 4.4910936356 12.815113068 -0.83207035065 5.3988142014 
11.108459473 -1.6980419159 -1.0133838654 14.521766663 0.89987182617 -0.67124462128 12.904165268 -2.5640130043 1.0874948502 
10.255133629 -3.7222323418 3.7503442764 13.668439865 -2.5179171562 3.7503442764 12.815113068 -0.83207035065 5.3988142014 
12.815113068 -0.83207035065 5.3988142014 13.668439865 -2.5179171562 3.7503442764 13.668439865 -0.83207035065 5.2665729523 
1.721868515 -2.5640130043 1.2692985535 1.721868515 -0.83207035065 1.754119873 0.12338161469 0.0339012146 0.19987869263 
5.1351747513 -1.6980419159 -2.2828330994 1.721868515 -1.6980419159 -1.7031154633 4.2818479538 -0.83207035065 -2.4039821625 
8.5484800339 0.89987182617 -2.9149599075 7.6951541901 -2.5640130043 -1.7450351715 5.1351747513 -1.6980419159 -2.2828330994 
8.5484800339 -1.6980419159 4.5768270493 5.9885005951 0.0339012146 3.7418746948 6.8418273926 -3.4299840927 3.5199756622 
9.4018068314 -0.83207035065 -2.1743335724 7.6951541901 -2.5640130043 -1.7450351715 8.5484800339 0.89987182617 -2.9149599075 
11.96178627 0.0339012146 -1.5857515335 11.108459473 -1.6980419159 -1.0133838654 9.4018068314 -0.83207035065 -2.1743335724 
15.375091553 -0.32912826538 1.0874948502 12.904165268 -2.5640130043 1.0874948502 14.521766663 0.89987182617 -0.67124462128 
13.668439865 -2.5179171562 3.7503442764 15.375091553 -0.49098300934 4.637960434 13.668439865 -0.83207035065 5.2665729523 
15.375091553 -0.32912826538 1.0874948502 15.479869843 -0.83207035065 1.9751110077 13.668439865 -2.4864749908 1.9751110077 
15.375091553 -0.32912826538 1.0874948502 13.668439865 -2.4864749908 1.9751110077 12.904165268 -2.5640130043 1.0874948502 
13.668439865 -2.4864749908 1.9751110077 15.758989334 -0.83207035065 2.8627281189 13.668439865 -2.5179171562 3.7503442764 
15.479869843 -0.83207035065 1.9751110077 15.758989334 -0.83207035065 2.8627281189 13.668439865 -2.4864749908 1.9751110077 
15.758989334 -0.83207035065 2.8627281189 15.69553566 -0.83207035065 3.7503442764 13.668439865 -2.5179171562 3.7503442764 
15.69553566 -0.83207035065 3.7503442764 15.375091553 -0.49098300934 4.637960434 13.668439865 -2.5179171562 3.7503442764 
1.721868515 -1.6980419159 -1.7031154633 0.69065570831 -0.83207035065 -0.68773841858 1.721868515 0.89987182617 -1.6852855682 
1.721868515 -0.83207035065 1.754119873 1.721868515 0.89987182617 1.6753072739 0.12338161469 0.0339012146 0.19987869263 
5.9885005951 0.0339012146 3.7418746948 1.721868515 0.89987182617 1.6753072739 1.721868515 -0.83207035065 1.754119873 
11.108459473 0.89987182617 5.4288749695 5.9885005951 0.0339012146 3.7418746948 8.5484800339 -1.6980419159 4.5768270493 
12.815113068 -0.83207035065 5.3988142014 11.108459473 0.89987182617 5.4288749695 8.5484800339 -1.6980419159 4.5768270493 
12.815113068 -0.83207035065 5.3988142014 14.521766663 1.7658433914 5.6321792603 11.108459473 0.89987182617 5.4288749695 
11.96178627 0.0339012146 -1.5857515335 14.521766663 0.89987182617 -0.67124462128 11.108459473 -1.6980419159 -1.0133838654 
12.815113068 -0.83207035065 5.3988142014 13.668439865 -0.83207035065 5.2665729523 14.521766663 1.7658433914 5.6321792603 
0.69065570831 -0.83207035065 -0.68773841858 0.12338161469 0.0339012146 0.19987869263 0.84029006958 0.89987182617 -0.68773841858 
0.12338161469 0.0339012146 0.19987869263 0.50687360764 0.89987182617 0.19987869263 0.84029006958 0.89987182617 -0.68773841858 
0.69065570831 -0.83207035065 -0.68773841858 0.84029006958 0.89987182617 -0.68773841858 1.721868515 0.89987182617 -1.6852855682 
0.12338161469 0.0339012146 0.19987869263 1.721868515 0.89987182617 1.6753072739 0.50687360764 0.89987182617 0.19987869263 
4.2818479538 -0.83207035065 -2.4039821625 1.721868515 -1.6980419159 -1.7031154633 1.721868515 0.89987182617 -1.6852855682 
4.2818479538 -0.83207035065 -2.4039821625 1.721868515 0.89987182617 -1.6852855682 5.1351747513 1.7658433914 -2.673330307 
[...]
CELL_DATA 796
FIELD FieldData 1
GroupIds 1 796 float
0 0 0 0 0 0 0 0 0 
0 0 0 0 0 0 0 0 0 
0 0 0 0 0 0 0 0 0 
0 0 0 0 0 0 0 0 0 
0 0 0 0 0 0 0 0 0 
0 0 0 0 0 0 0 0 0 
0 0 0 0 0 0 0 0 0 
0 0 0 0 0 0 0 0 0 
0 0 0 0 0 0 0 0 0 
0 0 0 0 0 0 0 0 0 
0 0 0 0 0 0 0 0 0 
0 0 0 0 0 0 0 0 0 
0 0 0 0 0 0 0 0 0 
0 0 0 0 0 0 0 0 0 
0 0 0 0 0 0 0 0 0 
0 0 0 0 0 0 0 0 0 
0 0 0 0 0 0 0 0 0 
0 0 0 0 0 0 0 0 0 
0 0 0 0 0 0 0 0 0 
0 0 0 0 0 0 0 0 0 
0 0 0 0 0 0 0 0 0 
0 0 0 0 0 0 0 0 0 
0 0 0 0 0 0 0 0 0 
0 0 0 0 0 0 0 0 0 
0 0 0 0 0 0 0 0 0 
0 0 0 0 0 0 0 0 0 
0 0 0 0 0 0 0 0 0 
0 0 0 0 0 0 0 0 0 
0 0 0 0 0 0 0 0 0 
0 0 0 0 0 0 0 0 0 
0 0 0 0 0 0 0 0 0 
0 0 0 0 0 0 0 0 0 
0 0 0 0 0 0 0 0 0 
0 0 0 0 0 0 0 0 0 
0 0 0 0 0 0 0 0 0 
0 0 0 0 0 0 0 0 0 
0 0 0 0 0 0 0 0 0 
0 0 0 0 0 0 0 0 0 
0 0 0 0 0 0 0 0 0 
0 0 0 0 0 0 0 0 0 
0 0 0 0 0 0 0 0 0 
0 0 0 0 0 0 0 0 0 
0 0 0 0 0 0 0 0 0 
0 0 0 0 0 0 0 0 0 
0 0 0 0 0 0 0 0 0 
0 0 0 0 0 0 0 0 0 
0 0 0 0 0 0 0 0 0 
0 0 0 0 0 0 0 0 0 
0 0 0 0 0 0 0 0 0 
0 0 0 0 0 0 0 0 0 
0 0 0 0 0 0 0 0 0 
0 0 0 0 0 0 0 0 0 
0 0 0 0 0 0 0 0 0 
0 0 0 0 0 0 0 0 0 
0 0 0 0 0 0 0 0 0 
0 0 0 0 0 0 0 0 0 
0 0 0 0 0 0 0 0 0 
0 0 0 0 0 0 0 0 0 
0 0 0 0 0 0 0 0 0 
0 0 0 0 0 0 0 0 0 
0 0 0 0 0 0 0 0 0 
0 0 0 0 0 0 0 0 0 
0 0 0 0 0 0 0 0 0 
0 0 0 0 0 0 0 0 0 
0 0 0 0 0 0 0 0 0 
0 0 0 0 0 0 0 0 0 
0 0 0 0 0 0 0 0 0 
0 0 0 0 0 0 0 0 0 
0 0 0 0 0 0 0 0 0 
0 0 0 0 0 0 0 0 0 
0 0 0 0 0 0 0 0 0 
0 0 0 0 0 0 0 0 0 
0 0 0 0 0 0 0 0 0 
0 0 0 0 0 0 0 0 0 
0 0 0 0 0 0 0 0 0 
0 0 0 0 0 0 0 0 0 
0 0 0 0 0 0 0 0 0 
0 0 0 0 0 0 0 0 0 
0 0 0 0 0 0 0 0 0 
0 0 0 0 0 0 0 0 0 
0 0 0 0 0 0 0 0 0 
0 0 0 0 0 0 0 0 0 
0 0 0 0 0 0 0 0 0 
0 0 0 0 0 0 0 0 0 
0 0 0 0 0 0 0 0 0 
0 0 0 0 0 0 0 0 0 
0 0 0 0 0 0 0 0 0 
0 0 0 0 0 0 0 0 0 
0 0 0 0 
POINT_DATA 2388
NORMALS Normals float
-0.0733588 -0.977145 -0.199514 -0.0733588 -0.977145 -0.199514 -0.0733588 -0.977145 -0.199514 
-0.467451 -0.748967 0.469615 -0.467451 -0.748967 0.469615 -0.467451 -0.748967 0.469615 
-0.482549 -0.767999 0.421098 -0.482549 -0.767999 0.421098 -0.482549 -0.767999 0.421098 
-0.133664 -0.947789 -0.289533 -0.133664 -0.947789 -0.289533 -0.133664 -0.947789 -0.289533 
-0.206867 -0.833567 -0.512222 -0.206867 -0.833567 -0.512222 -0.206867 -0.833567 -0.512222 
-0.239828 -0.966386 -0.0926289 -0.239828 -0.966386 -0.0926289 -0.239828 -0.966386 -0.0926289 
0.0662487 -0.976909 0.203126 0.0662487 -0.976909 0.203126 0.0662487 -0.976909 0.203126 
-0.282596 -0.841102 0.461181 -0.282596 -0.841102 0.461181 -0.282596 -0.841102 0.461181 
-0.278414 -0.828655 0.48561 -0.278414 -0.828655 0.48561 -0.278414 -0.828655 0.48561 
0.0576816 -0.850578 -0.522675 0.0576816 -0.850578 -0.522675 0.0576816 -0.850578 -0.522675 
0.287692 -0.938363 -0.191596 0.287692 -0.938363 -0.191596 0.287692 -0.938363 -0.191596 
0.337919 -0.85519 -0.393015 0.337919 -0.85519 -0.393015 0.337919 -0.85519 -0.393015 
0.171318 -0.850013 0.498125 0.171318 -0.850013 0.498125 0.171318 -0.850013 0.498125 
0.34181 -0.939069 -0.0362845 0.34181 -0.939069 -0.0362845 0.34181 -0.939069 -0.0362845 
-0.384162 -0.904332 -0.186019 -0.384162 -0.904332 -0.186019 -0.384162 -0.904332 -0.186019 
-0.294994 -0.694428 0.656315 -0.294994 -0.694428 0.656315 -0.294994 -0.694428 0.656315 
-0.335912 -0.9008 -0.275178 -0.335912 -0.9008 -0.275178 -0.335912 -0.9008 -0.275178 
-0.428759 -0.542569 0.722346 -0.428759 -0.542569 0.722346 -0.428759 -0.542569 0.722346 
-0.0641087 -0.454584 -0.888394 -0.0641087 -0.454584 -0.888394 -0.0641087 -0.454584 -0.888394 
-0.336205 -0.565613 0.753026 -0.336205 -0.565613 0.753026 -0.336205 -0.565613 0.753026 
-0.35786 -0.620375 0.697905 -0.35786 -0.620375 0.697905 -0.35786 -0.620375 0.697905 
0.155044 -0.59964 -0.785107 0.155044 -0.59964 -0.785107 0.155044 -0.59964 -0.785107 
0.181488 -0.701913 -0.688752 0.181488 -0.701913 -0.688752 0.181488 -0.701913 -0.688752 
0.288296 -0.729607 -0.620129 0.288296 -0.729607 -0.620129 0.288296 -0.729607 -0.620129 
-0.134125 -0.537278 0.832672 -0.134125 -0.537278 0.832672 -0.134125 -0.537278 0.832672 
0.178973 -0.887994 0.423598 0.178973 -0.887994 0.423598 0.178973 -0.887994 0.423598 
-0.0719149 -0.574459 0.815368 -0.0719149 -0.574459 0.815368 -0.0719149 -0.574459 0.815368 
0.458412 -0.73523 -0.499294 0.458412 -0.73523 -0.499294 0.458412 -0.73523 -0.499294 
-0.17389 -0.466311 -0.867362 -0.17389 -0.466311 -0.867362 -0.17389 -0.466311 -0.867362 
-0.0142658 -0.557616 -0.829976 -0.0142658 -0.557616 -0.829976 -0.0142658 -0.557616 -0.829976 
0.309727 -0.504911 -0.805689 0.309727 -0.504911 -0.805689 0.309727 -0.504911 -0.805689 
0.296274 -0.503869 -0.811381 0.296274 -0.503869 -0.811381 0.296274 -0.503869 -0.811381 
0.402587 -0.616364 -0.676772 0.402587 -0.616364 -0.676772 0.402587 -0.616364 -0.676772 
0.445112 -0.62731 -0.639029 0.445112 -0.62731 -0.639029 0.445112 -0.62731 -0.639029 
0.49434 -0.792853 -0.356388 0.49434 -0.792853 -0.356388 0.49434 -0.792853 -0.356388 
0.471366 -0.875393 -0.107241 0.471366 -0.875393 -0.107241 0.471366 -0.875393 -0.107241 
0.286943 -0.813263 0.506229 0.286943 -0.813263 0.506229 0.286943 -0.813263 0.506229 
0.49828 -0.86688 -0.0153538 0.49828 -0.86688 -0.0153538 0.49828 -0.86688 -0.0153538 
-0.898375 -0.397945 -0.185909 -0.898375 -0.397945 -0.185909 -0.898375 -0.397945 -0.185909 
-0.787153 -0.317068 -0.529016 -0.787153 -0.317068 -0.529016 -0.787153 -0.317068 -0.529016 
-0.92485 -0.372533 -0.0766292 -0.92485 -0.372533 -0.0766292 -0.92485 -0.372533 -0.0766292 
-0.853896 -0.378243 0.357483 -0.853896 -0.378243 0.357483 -0.853896 -0.378243 0.357483 
-0.144157 -0.508719 -0.848778 -0.144157 -0.508719 -0.848778 -0.144157 -0.508719 -0.848778 
-0.415256 -0.245226 0.876029 -0.415256 -0.245226 0.876029 -0.415256 -0.245226 0.876029 
-0.382124 -0.192133 0.903917 -0.382124 -0.192133 0.903917 -0.382124 -0.192133 0.903917 
-0.449866 -0.167027 0.877338 -0.449866 -0.167027 0.877338 -0.449866 -0.167027 0.877338 
-0.237482 -0.324655 0.915533 -0.237482 -0.324655 0.915533 -0.237482 -0.324655 0.915533 
0.0364089 -0.519258 0.853842 0.0364089 -0.519258 0.853842 0.0364089 -0.519258 0.853842 
-0.138461 -0.231766 0.962867 -0.138461 -0.231766 0.962867 -0.138461 -0.231766 0.962867 
0.496757 -0.566026 -0.657911 0.496757 -0.566026 -0.657911 0.496757 -0.566026 -0.657911 
0.219778 -0.622902 0.750793 0.219778 -0.622902 0.750793 0.219778 -0.622902 0.750793 
0.114467 -0.664317 0.738634 0.114467 -0.664317 0.738634 0.114467 -0.664317 0.738634 
-0.7345 -0.18293 0.653487 -0.7345 -0.18293 0.653487 -0.7345 -0.18293 0.653487 
-0.160252 -0.289913 -0.943541 -0.160252 -0.289913 -0.943541 -0.160252 -0.289913 -0.943541 
0.0829527 -0.337171 -0.937782 0.0829527 -0.337171 -0.937782 0.0829527 -0.337171 -0.937782 
-0.400345 -0.156466 0.902908 -0.400345 -0.156466 0.902908 -0.400345 -0.156466 0.902908 
0.113405 -0.34289 -0.932505 0.113405 -0.34289 -0.932505 0.113405 -0.34289 -0.932505 
0.340328 -0.441964 -0.829967 0.340328 -0.441964 -0.829967 0.340328 -0.441964 -0.829967 
0.51269 -0.566839 -0.644858 0.51269 -0.566839 -0.644858 0.51269 -0.566839 -0.644858 
0.377378 -0.619268 0.688544 0.377378 -0.619268 0.688544 0.377378 -0.619268 0.688544 
0.603666 -0.660963 -0.445775 0.603666 -0.660963 -0.445775 0.603666 -0.660963 -0.445775 
0.596891 -0.659933 -0.4563 0.596891 -0.659933 -0.4563 0.596891 -0.659933 -0.4563 
0.624108 -0.781216 -0.0138365 0.624108 -0.781216 -0.0138365 0.624108 -0.781216 -0.0138365 
0.659708 -0.722323 -0.207451 0.659708 -0.722323 -0.207451 0.659708 -0.722323 -0.207451 
0.638756 -0.768053 0.0456632 0.638756 -0.768053 0.0456632 0.638756 -0.768053 0.0456632 
0.565843 -0.68038 0.465731 0.565843 -0.68038 0.465731 0.565843 -0.68038 0.465731 
-0.699512 0.00490444 -0.714604 -0.699512 0.00490444 -0.714604 -0.699512 0.00490444 -0.714604 
-0.687484 0.0330118 0.725449 -0.687484 0.0330118 0.725449 -0.687484 0.0330118 0.725449 
-0.428783 0.0410674 0.902474 -0.428783 0.0410674 0.902474 -0.428783 0.0410674 0.902474 
-0.31237 -0.0037507 0.949953 -0.31237 -0.0037507 0.949953 -0.31237 -0.0037507 0.949953 
-0.153472 -0.168132 0.973744 -0.153472 -0.168132 0.973744 -0.153472 -0.168132 0.973744 
-0.0440029 -0.0606683 0.997188 -0.0440029 -0.0606683 0.997188 -0.0440029 -0.0606683 0.997188 
0.433435 -0.468055 -0.770103 0.433435 -0.468055 -0.770103 0.433435 -0.468055 -0.770103 
0.150469 -0.186066 0.970947 0.150469 -0.186066 0.970947 0.150469 -0.186066 0.970947 
-0.808253 0.0698305 -0.58468 -0.808253 0.0698305 -0.58468 -0.808253 0.0698305 -0.58468 
-0.864769 0.38296 -0.324834 -0.864769 0.38296 -0.324834 -0.864769 0.38296 -0.324834 
-0.747754 0.0646036 -0.660825 -0.747754 0.0646036 -0.660825 -0.747754 0.0646036 -0.660825 
-0.730444 0.323475 0.601511 -0.730444 0.323475 0.601511 -0.730444 0.323475 0.601511 
-0.266136 0.00661549 -0.963913 -0.266136 0.00661549 -0.963913 -0.266136 0.00661549 -0.963913 
-0.275931 -0.0090151 -0.961135 -0.275931 -0.0090151 -0.961135 -0.275931 -0.0090151 -0.961135 
-0.0546344 -0.190949 -0.980078 -0.0546344 -0.190949 -0.980078 -0.0546344 -0.190949 -0.980078 
-0.0250511 -0.205154 -0.978409 -0.0250511 -0.205154 -0.978409 -0.0250511 -0.205154 -0.978409 
-0.326296 0.0975445 0.940221 -0.326296 0.0975445 0.940221 -0.326296 0.0975445 0.940221 
0.379767 -0.268918 0.885133 0.379767 -0.268918 0.885133 0.379767 -0.268918 0.885133 
0.340937 -0.239905 0.90896 0.340937 -0.239905 0.90896 0.340937 -0.239905 0.90896 
0.804113 -0.538019 -0.252861 0.804113 -0.538019 -0.252861 0.804113 -0.538019 -0.252861 
0.829659 -0.555112 0.0593103 0.829659 -0.555112 0.0593103 0.829659 -0.555112 0.0593103 
0.832298 -0.539617 0.126859 0.832298 -0.539617 0.126859 0.832298 -0.539617 0.126859 
0.746883 -0.484238 0.455717 0.746883 -0.484238 0.455717 0.746883 -0.484238 0.455717 
-0.736586 0.29919 0.606569 -0.736586 0.29919 0.606569 -0.736586 0.29919 0.606569 
-0.398752 0.180857 0.899048 -0.398752 0.180857 0.899048 -0.398752 0.180857 0.899048 
-0.428981 0.338581 0.83746 -0.428981 0.338581 0.83746 -0.428981 0.338581 0.83746 
-0.216972 -0.0298933 -0.97572 -0.216972 -0.0298933 -0.97572 -0.216972 -0.0298933 -0.97572 
-0.355843 0.167888 0.919342 -0.355843 0.167888 0.919342 -0.355843 0.167888 0.919342 
0.239137 -0.279787 -0.929803 0.239137 -0.279787 -0.929803 0.239137 -0.279787 -0.929803 
0.318699 -0.341045 -0.884375 0.318699 -0.341045 -0.884375 0.318699 -0.341045 -0.884375 
-0.158381 0.10189 0.982107 -0.158381 0.10189 0.982107 -0.158381 0.10189 0.982107 
-0.0405075 -0.0742646 0.996416 -0.0405075 -0.0742646 0.996416 -0.0405075 -0.0742646 0.996416 
0.717631 -0.566179 -0.405521 0.717631 -0.566179 -0.405521 0.717631 -0.566179 -0.405521 
0.451623 -0.56786 0.688165 0.451623 -0.56786 0.688165 0.451623 -0.56786 0.688165 
0.652741 -0.307542 0.692349 0.652741 -0.307542 0.692349 0.652741 -0.307542 0.692349 
0.772651 -0.569555 -0.280388 0.772651 -0.569555 -0.280388 0.772651 -0.569555 -0.280388 
0.804318 -0.592898 -0.0392976 0.804318 -0.592898 -0.0392976 0.804318 -0.592898 -0.0392976 
-0.70486 0.339332 -0.622917 -0.70486 0.339332 -0.622917 -0.70486 0.339332 -0.622917 
-0.853467 0.410874 -0.320589 -0.853467 0.410874 -0.320589 -0.853467 0.410874 -0.320589 
-0.836364 0.547988 -0.0143019 -0.836364 0.547988 -0.0143019 -0.836364 0.547988 -0.0143019 
-0.804971 0.52742 0.271753 -0.804971 0.52742 0.271753 -0.804971 0.52742 0.271753 
-0.506117 0.41258 -0.757379 -0.506117 0.41258 -0.757379 -0.506117 0.41258 -0.757379 
-0.216957 -0.0321495 -0.975652 -0.216957 -0.0321495 -0.975652 -0.216957 -0.0321495 -0.975652 
0.285278 -0.331505 -0.899289 0.285278 -0.331505 -0.899289 0.285278 -0.331505 -0.899289 
0.428428 -0.423717 -0.798069 0.428428 -0.423717 -0.798069 0.428428 -0.423717 -0.798069 
0.47181 -0.413459 -0.778747 0.47181 -0.413459 -0.778747 0.47181 -0.413459 -0.778747 
0.589939 -0.498911 -0.63487 0.589939 -0.498911 -0.63487 0.589939 -0.498911 -0.63487 
0.636996 -0.502562 -0.584523 0.636996 -0.502562 -0.584523 0.636996 -0.502562 -0.584523 
-0.496788 0.597996 -0.628969 -0.496788 0.597996 -0.628969 -0.496788 0.597996 -0.628969 
-0.414846 0.414751 0.809867 -0.414846 0.414751 0.809867 -0.414846 0.414751 0.809867 
-0.320832 0.211128 -0.923305 -0.320832 0.211128 -0.923305 -0.320832 0.211128 -0.923305 
-0.456685 0.127079 -0.880506 -0.456685 0.127079 -0.880506 -0.456685 0.127079 -0.880506 
-0.324266 0.0819727 -0.942408 -0.324266 0.0819727 -0.942408 -0.324266 0.0819727 -0.942408 
0.0226162 -0.113578 -0.993272 0.0226162 -0.113578 -0.993272 0.0226162 -0.113578 -0.993272 
-0.0596929 -0.0328753 -0.997675 -0.0596929 -0.0328753 -0.997675 -0.0596929 -0.0328753 -0.997675 
-0.156804 0.173158 0.972331 -0.156804 0.173158 0.972331 -0.156804 0.173158 0.972331 
0.259711 -0.0535709 0.964199 0.259711 -0.0535709 0.964199 0.259711 -0.0535709 0.964199 
-0.609718 0.733933 -0.29931 -0.609718 0.733933 -0.29931 -0.609718 0.733933 -0.29931 
-0.497682 0.691092 0.524122 -0.497682 0.691092 0.524122 -0.497682 0.691092 0.524122 
-0.58352 0.778708 -0.230473 -0.58352 0.778708 -0.230473 -0.58352 0.778708 -0.230473 
-0.503084 0.671366 0.544218 -0.503084 0.671366 0.544218 -0.503084 0.671366 0.544218 
-0.649302 0.414872 -0.637407 -0.649302 0.414872 -0.637407 -0.649302 0.414872 -0.637407 
-0.345776 0.287037 0.893336 -0.345776 0.287037 0.893336 -0.345776 0.287037 0.893336 
0.149312 -0.143169 -0.97837 0.149312 -0.143169 -0.97837 0.149312 -0.143169 -0.97837 
-0.0179383 0.219492 0.97545 -0.0179383 0.219492 0.97545 -0.0179383 0.219492 0.97545 
0.0752438 0.039798 0.996371 0.0752438 0.039798 0.996371 0.0752438 0.039798 0.996371 
0.309977 0.000280081 0.950744 0.309977 0.000280081 0.950744 0.309977 0.000280081 0.950744 
0.178346 0.137566 0.974304 0.178346 0.137566 0.974304 0.178346 0.137566 0.974304 
0.548669 0.00024629 0.83604 0.548669 0.00024629 0.83604 0.548669 0.00024629 0.83604 
0.647106 -0.497931 -0.577338 0.647106 -0.497931 -0.577338 0.647106 -0.497931 -0.577338 
0.900802 -0.431994 -0.0440116 0.900802 -0.431994 -0.0440116 0.900802 -0.431994 -0.0440116 
0.866939 -0.415755 0.274892 0.866939 -0.415755 0.274892 0.866939 -0.415755 0.274892 
-0.507796 0.667225 0.544935 -0.507796 0.667225 0.544935 -0.507796 0.667225 0.544935 
-0.532012 0.387651 -0.752788 -0.532012 0.387651 -0.752788 -0.532012 0.387651 -0.752788 
-0.23583 0.174879 -0.95593 -0.23583 0.174879 -0.95593 -0.23583 0.174879 -0.95593 
-0.434133 0.55185 0.712032 -0.434133 0.55185 0.712032 -0.434133 0.55185 0.712032 
-0.0994657 0.0860354 -0.991315 -0.0994657 0.0860354 -0.991315 -0.0994657 0.0860354 -0.991315 
-0.428114 0.401464 0.809658 -0.428114 0.401464 0.809658 -0.428114 0.401464 0.809658 
-0.0463005 0.112403 -0.992583 -0.0463005 0.112403 -0.992583 -0.0463005 0.112403 -0.992583 
-0.339637 0.287722 0.895468 -0.339637 0.287722 0.895468 -0.339637 0.287722 0.895468 
-0.0741568 0.139422 0.987452 -0.0741568 0.139422 0.987452 -0.0741568 0.139422 0.987452 
0.324577 -0.292844 -0.899384 0.324577 -0.292844 -0.899384 0.324577 -0.292844 -0.899384 
0.488706 -0.0423823 0.871419 0.488706 -0.0423823 0.871419 0.488706 -0.0423823 0.871419 
0.71326 -0.249917 0.654829 0.71326 -0.249917 0.654829 0.71326 -0.249917 0.654829 
0.812228 -0.278229 0.512713 0.812228 -0.278229 0.512713 0.812228 -0.278229 0.512713 
0.78405 -0.551645 -0.284524 0.78405 -0.551645 -0.284524 0.78405 -0.551645 -0.284524 
0.842965 -0.480992 0.24095 0.842965 -0.480992 0.24095 0.842965 -0.480992 0.24095 
-0.639803 0.760643 -0.109883 -0.639803 0.760643 -0.109883 -0.639803 0.760643 -0.109883 
-0.635718 0.755788 -0.156996 -0.635718 0.755788 -0.156996 -0.635718 0.755788 -0.156996 
-0.479962 0.436847 -0.76079 -0.479962 0.436847 -0.76079 -0.479962 0.436847 -0.76079 
-0.50959 0.658087 0.554292 -0.50959 0.658087 0.554292 -0.50959 0.658087 0.554292 
-0.34526 0.352261 -0.86989 -0.34526 0.352261 -0.86989 -0.34526 0.352261 -0.86989 
0.149034 -0.155389 -0.976547 0.149034 -0.155389 -0.976547 0.149034 -0.155389 -0.976547 
-0.0711568 0.311723 0.947505 -0.0711568 0.311723 0.947505 -0.0711568 0.311723 0.947505 
0.230297 0.189536 0.954484 0.230297 0.189536 0.954484 0.230297 0.189536 0.954484 
0.709934 -0.499498 -0.496483 0.709934 -0.499498 -0.496483 0.709934 -0.499498 -0.496483 
-0.516714 0.676588 -0.524629 -0.516714 0.676588 -0.524629 -0.516714 0.676588 -0.524629 
-0.591099 0.773987 -0.227037 -0.591099 0.773987 -0.227037 -0.591099 0.773987 -0.227037 
-0.520869 0.805123 0.283677 -0.520869 0.805123 0.283677 -0.520869 0.805123 0.283677 
-0.454007 0.495196 0.740715 -0.454007 0.495196 0.740715 -0.454007 0.495196 0.740715 
-0.261621 0.415494 0.871159 -0.261621 0.415494 0.871159 -0.261621 0.415494 0.871159 
0.0496892 0.0182194 -0.998599 0.0496892 0.0182194 -0.998599 0.0496892 0.0182194 -0.998599 
-0.0417207 0.320925 0.946185 -0.0417207 0.320925 0.946185 -0.0417207 0.320925 0.946185 
0.368834 -0.316169 -0.87407 0.368834 -0.316169 -0.87407 0.368834 -0.316169 -0.87407 
0.360129 0.181703 0.915036 0.360129 0.181703 0.915036 0.360129 0.181703 0.915036 
0.28364 -0.0832694 0.955308 0.28364 -0.0832694 0.955308 0.28364 -0.0832694 0.955308 
0.475421 -0.426869 -0.769257 0.475421 -0.426869 -0.769257 0.475421 -0.426869 -0.769257 
0.486563 -0.427869 -0.761699 0.486563 -0.427869 -0.761699 0.486563 -0.427869 -0.761699 
0.615048 -0.566219 -0.548737 0.615048 -0.566219 -0.548737 0.615048 -0.566219 -0.548737 
0.798875 -0.581794 0.152691 0.798875 -0.581794 0.152691 0.798875 -0.581794 0.152691 
-0.315589 0.749875 -0.581456 -0.315589 0.749875 -0.581456 -0.315589 0.749875 -0.581456 
-0.472805 0.878602 -0.0671909 -0.472805 0.878602 -0.0671909 -0.472805 0.878602 -0.0671909 
-0.545271 0.7848 0.294566 -0.545271 0.7848 0.294566 -0.545271 0.7848 0.294566 
-0.211838 0.503352 -0.837712 -0.211838 0.503352 -0.837712 -0.211838 0.503352 -0.837712 
-0.0440524 0.325865 -0.944389 -0.0440524 0.325865 -0.944389 -0.0440524 0.325865 -0.944389 
-0.276893 0.448014 0.850067 -0.276893 0.448014 0.850067 -0.276893 0.448014 0.850067 
0.0410751 0.0394091 -0.998379 0.0410751 0.0394091 -0.998379 0.0410751 0.0394091 -0.998379 
0.221242 -0.189298 -0.95667 0.221242 -0.189298 -0.95667 0.221242 -0.189298 -0.95667 
0.678625 -0.584124 -0.445273 0.678625 -0.584124 -0.445273 0.678625 -0.584124 -0.445273 
0.726418 -0.625261 -0.285247 0.726418 -0.625261 -0.285247 0.726418 -0.625261 -0.285247 
0.658051 -0.400075 0.637894 0.658051 -0.400075 0.637894 0.658051 -0.400075 0.637894 
0.434014 -0.0782308 0.897503 0.434014 -0.0782308 0.897503 0.434014 -0.0782308 0.897503 
0.740781 -0.417458 0.526282 0.740781 -0.417458 0.526282 0.740781 -0.417458 0.526282 
-0.321822 0.635372 -0.70195 -0.321822 0.635372 -0.70195 -0.321822 0.635372 -0.70195 
-0.449813 0.888065 -0.0949137 -0.449813 0.888065 -0.0949137 -0.449813 0.888065 -0.0949137 
-0.485845 0.66851 0.563071 -0.485845 0.66851 0.563071 -0.485845 0.66851 0.563071 
-0.463541 0.651193 0.600896 -0.463541 0.651193 0.600896 -0.463541 0.651193 0.600896 
-0.290523 0.312113 -0.904534 -0.290523 0.312113 -0.904534 -0.290523 0.312113 -0.904534 
-0.203613 0.275806 -0.9394 -0.203613 0.275806 -0.9394 -0.203613 0.275806 -0.9394 
-0.266607 0.508916 0.818489 -0.266607 0.508916 0.818489 -0.266607 0.508916 0.818489 
0.435275 -0.0183105 0.900111 0.435275 -0.0183105 0.900111 0.435275 -0.0183105 0.900111 
0.725843 -0.215255 0.653312 0.725843 -0.215255 0.653312 0.725843 -0.215255 0.653312 
0.816179 -0.559425 -0.144555 0.816179 -0.559425 -0.144555 0.816179 -0.559425 -0.144555 
0.821617 -0.563153 0.0883473 0.821617 -0.563153 0.0883473 0.821617 -0.563153 0.0883473 
-0.569818 0.784056 0.246095 -0.569818 0.784056 0.246095 -0.569818 0.784056 0.246095 
-0.50093 0.580806 -0.641665 -0.50093 0.580806 -0.641665 -0.50093 0.580806 -0.641665 
-0.637775 0.684596 -0.352946 -0.637775 0.684596 -0.352946 -0.637775 0.684596 -0.352946 
-0.059252 -0.157787 -0.985694 -0.059252 -0.157787 -0.985694 -0.059252 -0.157787 -0.985694 
0.212297 -0.335003 -0.917989 0.212297 -0.335003 -0.917989 0.212297 -0.335003 -0.917989 
-0.0452992 -0.157903 -0.986415 -0.0452992 -0.157903 -0.986415 -0.0452992 -0.157903 -0.986415 
-0.0226266 0.353808 0.935044 -0.0226266 0.353808 0.935044 -0.0226266 0.353808 0.935044 
0.189546 0.199674 0.961355 0.189546 0.199674 0.961355 0.189546 0.199674 0.961355 
0.11492 0.270941 0.955711 0.11492 0.270941 0.955711 0.11492 0.270941 0.955711 