# vtk DataFile Version 4.2
3D Slicer output. SPACE=LPS
ASCII
DATASET POLYDATA
POINTS 2676 double
5.9440584183 -4.291185379 1.3243188858 6.7845048904 -4.3301486969 0.49752235413 8.4653968811 -4.359954834 2.1511154175 
1.7418279648 -3.1515035629 -0.32927417755 4.2631664276 -4.1178746223 0.49752235413 1.7418279648 -3.0003910065 0.49752235413 
4.2631664276 -4.1178746223 0.49752235413 3.4227199554 -2.716146946 1.7702159882 1.7418279648 -3.0003910065 0.49752235413 
1.7418279648 -3.1515035629 -0.32927417755 4.2631664276 -3.3757247925 -1.1560707092 4.2631664276 -4.1178746223 0.49752235413 
3.4227199554 -2.716146946 1.7702159882 4.2631664276 -4.1178746223 0.49752235413 5.9440584183 -4.291185379 1.3243188858 
5.9440584183 -4.291185379 1.3243188858 7.6249513626 -3.5511713028 3.3367729187 3.4227199554 -2.716146946 1.7702159882 
4.2631664276 -3.3757247925 -1.1560707092 6.7845048904 -2.716146946 -1.3547058105 6.7845048904 -4.3301486969 0.49752235413 
4.2631664276 -4.1178746223 0.49752235413 4.2631664276 -3.3757247925 -1.1560707092 6.7845048904 -4.3301486969 0.49752235413 
6.7845048904 -4.3301486969 0.49752235413 5.9440584183 -4.291185379 1.3243188858 4.2631664276 -4.1178746223 0.49752235413 
6.7845048904 -4.3301486969 0.49752235413 6.7845048904 -2.716146946 -1.3547058105 8.4653968811 -3.9690303802 0.49752235413 
7.6249513626 -3.5511713028 3.3367729187 5.9440584183 -4.291185379 1.3243188858 8.4653968811 -4.359954834 2.1511154175 
6.7845048904 -4.3301486969 0.49752235413 8.4653968811 -3.9690303802 0.49752235413 8.4653968811 -4.359954834 2.1511154175 
8.4653968811 -3.9690303802 0.49752235413 9.3058433533 -3.9340763092 1.3243188858 8.4653968811 -4.359954834 2.1511154175 
9.3058433533 -3.9340763092 1.3243188858 10.146289825 -3.5696082115 2.9779119492 8.4653968811 -4.359954834 2.1511154175 
8.4653968811 -4.359954834 2.1511154175 10.146289825 -3.5696082115 2.9779119492 7.6249513626 -3.5511713028 3.3367729187 
4.2631664276 -3.3757247925 -1.1560707092 1.7418279648 -3.1515035629 -0.32927417755 2.5822739601 -2.716146946 -1.4256191254 
7.6249513626 -3.5511713028 3.3367729187 6.7845048904 -1.8811221123 3.9732246399 3.4227199554 -2.716146946 1.7702159882 
8.4653968811 -2.716146946 -0.82080936432 8.4653968811 -3.9690303802 0.49752235413 6.7845048904 -2.716146946 -1.3547058105 
6.7845048904 -1.8811221123 3.9732246399 7.6249513626 -3.5511713028 3.3367729187 9.3058433533 -2.716146946 4.2594280243 
7.6249513626 -3.5511713028 3.3367729187 10.146289825 -3.5696082115 2.9779119492 9.3058433533 -2.716146946 4.2594280243 
8.4653968811 -3.9690303802 0.49752235413 8.4653968811 -2.716146946 -0.82080936432 10.45820713 -2.716146946 0.49752235413 
8.4653968811 -3.9690303802 0.49752235413 10.45820713 -2.716146946 0.49752235413 9.3058433533 -3.9340763092 1.3243188858 
10.45820713 -2.716146946 0.49752235413 11.646838188 -2.716146946 2.1511154175 9.3058433533 -3.9340763092 1.3243188858 
11.646838188 -2.716146946 2.1511154175 10.146289825 -3.5696082115 2.9779119492 9.3058433533 -3.9340763092 1.3243188858 
11.827181816 -2.4924721718 3.8047084808 10.146289825 -3.5696082115 2.9779119492 11.646838188 -2.716146946 2.1511154175 
2.5822739601 -2.716146946 -1.4256191254 1.7418279648 -3.1515035629 -0.32927417755 0.24930524826 -0.21107292175 -0.32927417755 
3.4227199554 -1.8811221123 2.1523303986 1.7418279648 -3.0003910065 0.49752235413 3.4227199554 -2.716146946 1.7702159882 
4.2631664276 -3.3757247925 -1.1560707092 2.5822739601 -2.716146946 -1.4256191254 5.9440584183 -1.0460972786 -2.2384357452 
6.7845048904 -1.8811221123 3.9732246399 3.4227199554 -1.8811221123 2.1523303986 3.4227199554 -2.716146946 1.7702159882 
6.7845048904 -2.716146946 -1.3547058105 4.2631664276 -3.3757247925 -1.1560707092 5.9440584183 -1.0460972786 -2.2384357452 
8.4653968811 -2.716146946 -0.82080936432 6.7845048904 -2.716146946 -1.3547058105 8.4653968811 -1.8811221123 -1.3342380524 
10.986735344 -2.1635155678 4.6315059662 10.146289825 -1.0460972786 5.2581939697 9.3058433533 -2.716146946 4.2594280243 
8.4653968811 -1.8811221123 -1.3342380524 10.986735344 -1.3088264465 -0.32927417755 8.4653968811 -2.716146946 -0.82080936432 
8.4653968811 -2.716146946 -0.82080936432 10.986735344 -1.3088264465 -0.32927417755 10.45820713 -2.716146946 0.49752235413 
10.146289825 -3.5696082115 2.9779119492 10.986735344 -2.1635155678 4.6315059662 9.3058433533 -2.716146946 4.2594280243 
10.45820713 -2.716146946 0.49752235413 10.986735344 -1.3088264465 -0.32927417755 13.101233482 -1.0460972786 1.3243188858 
10.45820713 -2.716146946 0.49752235413 13.101233482 -1.0460972786 1.3243188858 11.646838188 -2.716146946 2.1511154175 
10.146289825 -3.5696082115 2.9779119492 11.827181816 -2.4924721718 3.8047084808 10.986735344 -2.1635155678 4.6315059662 
1.7418279648 -3.1515035629 -0.32927417755 1.7418279648 -3.0003910065 0.49752235413 0.24930524826 -0.21107292175 -0.32927417755 
1.7418279648 -3.0003910065 0.49752235413 0.42521476746 -0.21107292175 0.49752235413 0.24930524826 -0.21107292175 -0.32927417755 
1.7418279648 -0.21107292175 -1.9102458954 2.5822739601 -2.716146946 -1.4256191254 0.24930524826 -0.21107292175 -0.32927417755 
1.7418279648 -3.0003910065 0.49752235413 1.7418279648 -0.21107292175 1.7864522934 0.42521476746 -0.21107292175 0.49752235413 
2.5822739601 -2.716146946 -1.4256191254 1.7418279648 -0.21107292175 -1.9102458954 3.4227199554 -0.21107292175 -2.3128356934 
3.4227199554 -1.8811221123 2.1523303986 1.7418279648 -0.21107292175 1.7864522934 1.7418279648 -3.0003910065 0.49752235413 
5.9440584183 -1.0460972786 -2.2384357452 2.5822739601 -2.716146946 -1.4256191254 3.4227199554 -0.21107292175 -2.3128356934 
8.4653968811 -1.8811221123 -1.3342380524 6.7845048904 -2.716146946 -1.3547058105 5.9440584183 -1.0460972786 -2.2384357452 
6.7845048904 -1.8811221123 3.9732246399 9.3058433533 -2.716146946 4.2594280243 10.146289825 -1.0460972786 5.2581939697 
12.667628288 -0.54316329956 5.4583015442 10.146289825 -1.0460972786 5.2581939697 10.986735344 -2.1635155678 4.6315059662 
13.101233482 -1.0460972786 1.3243188858 13.712094307 -1.0460972786 2.1511154175 11.646838188 -2.716146946 2.1511154175 
11.646838188 -2.716146946 2.1511154175 13.712094307 -1.0460972786 2.1511154175 11.827181816 -2.4924721718 3.8047084808 
13.712094307 -1.0460972786 2.1511154175 13.50807476 -1.4743833542 3.8047084808 11.827181816 -2.4924721718 3.8047084808 
13.50807476 -1.4743833542 3.8047084808 10.986735344 -2.1635155678 4.6315059662 11.827181816 -2.4924721718 3.8047084808 
10.986735344 -2.1635155678 4.6315059662 13.50807476 -1.4743833542 3.8047084808 12.667628288 -0.54316329956 5.4583015442 
3.4227199554 -1.8811221123 2.1523303986 3.4227199554 0.62395191193 2.5243530273 1.7418279648 -0.21107292175 1.7864522934 
3.4227199554 -1.8811221123 2.1523303986 7.6249513626 0.62395191193 4.8228702545 3.4227199554 0.62395191193 2.5243530273 
7.6249513626 0.62395191193 4.8228702545 3.4227199554 -1.8811221123 2.1523303986 6.7845048904 -1.8811221123 3.9732246399 
8.4653968811 -1.8811221123 -1.3342380524 5.9440584183 -1.0460972786 -2.2384357452 7.6249513626 -0.21107292175 -2.2539710999 
8.4653968811 -1.8811221123 -1.3342380524 7.6249513626 -0.21107292175 -2.2539710999 9.3058433533 0.62395191193 -2.1071043015 
7.6249513626 0.62395191193 4.8228702545 6.7845048904 -1.8811221123 3.9732246399 10.146289825 0.62395191193 5.6431407928 
10.146289825 -1.0460972786 5.2581939697 10.146289825 0.62395191193 5.6431407928 6.7845048904 -1.8811221123 3.9732246399 
9.3058433533 0.62395191193 -2.1071043015 10.986735344 -1.3088264465 -0.32927417755 8.4653968811 -1.8811221123 -1.3342380524 
10.146289825 0.62395191193 5.6431407928 10.146289825 -1.0460972786 5.2581939697 12.667628288 0.62395191193 5.9609870911 
10.146289825 -1.0460972786 5.2581939697 12.667628288 -0.54316329956 5.4583015442 12.667628288 0.62395191193 5.9609870911 
13.101233482 -1.0460972786 1.3243188858 10.986735344 -1.3088264465 -0.32927417755 14.348521233 2.2940015793 -0.24071407318 
13.101233482 -1.0460972786 1.3243188858 14.348521233 2.2940015793 -0.24071407318 14.569102287 -0.21107292175 2.1511154175 
13.101233482 -1.0460972786 1.3243188858 14.569102287 -0.21107292175 2.1511154175 13.712094307 -1.0460972786 2.1511154175 
13.50807476 -1.4743833542 3.8047084808 15.374712944 1.4589767456 5.4583015442 12.667628288 -0.54316329956 5.4583015442 
14.987935066 -0.21107292175 3.8047084808 13.712094307 -1.0460972786 2.1511154175 14.569102287 -0.21107292175 2.1511154175 
13.50807476 -1.4743833542 3.8047084808 13.712094307 -1.0460972786 2.1511154175 14.987935066 -0.21107292175 3.8047084808 
16.047203064 1.4589767456 4.6315059662 13.50807476 -1.4743833542 3.8047084808 14.987935066 -0.21107292175 3.8047084808 
13.50807476 -1.4743833542 3.8047084808 16.047203064 1.4589767456 4.6315059662 15.374712944 1.4589767456 5.4583015442 
9.3058433533 0.62395191193 -2.1071043015 12.667628288 1.4589767456 -0.9300775528 10.986735344 -1.3088264465 -0.32927417755 
10.986735344 -1.3088264465 -0.32927417755 12.667628288 1.4589767456 -0.9300775528 14.348521233 2.2940015793 -0.24071407318 
12.667628288 -0.54316329956 5.4583015442 15.374712944 1.4589767456 5.4583015442 12.667628288 0.62395191193 5.9609870911 
1.0838546753 2.2940015793 -0.32927417755 1.7418279648 2.2940015793 -1.4692707062 0.24930524826 -0.21107292175 -0.32927417755 
0.24930524826 -0.21107292175 -0.32927417755 0.42521476746 -0.21107292175 0.49752235413 1.0838546753 2.2940015793 -0.32927417755 
0.42521476746 -0.21107292175 0.49752235413 1.1314840317 2.2940015793 0.49752235413 1.0838546753 2.2940015793 -0.32927417755 
1.7418279648 2.2940015793 -1.4692707062 1.7418279648 -0.21107292175 -1.9102458954 0.24930524826 -0.21107292175 -0.32927417755 
1.7418279648 2.2940015793 -1.4692707062 3.4227199554 -0.21107292175 -2.3128356934 1.7418279648 -0.21107292175 -1.9102458954 
6.7845048904 3.1290254593 -2.8934545517 5.9440584183 -1.0460972786 -2.2384357452 3.4227199554 -0.21107292175 -2.3128356934 
[...]
CELL_DATA 892
FIELD FieldData 1
GroupIds 1 892 float
0 0 0 0 0 0 0 0 0 
0 0 0 0 0 0 0 0 0 
0 0 0 0 0 0 0 0 0 
0 0 0 0 0 0 0 0 0 
0 0 0 0 0 0 0 0 0 
0 0 0 0 0 0 0 0 0 
0 0 0 0 0 0 0 0 0 
0 0 0 0 0 0 0 0 0 
0 0 0 0 0 0 0 0 0 
0 0 0 0 0 0 0 0 0 
0 0 0 0 0 0 0 0 0 
0 0 0 0 0 0 0 0 0 
0 0 0 0 0 0 0 0 0 
0 0 0 0 0 0 0 0 0 
0 0 0 0 0 0 0 0 0 
0 0 0 0 0 0 0 0 0 
0 0 0 0 0 0 0 0 0 
0 0 0 0 0 0 0 0 0 
0 0 0 0 0 0 0 0 0 
0 0 0 0 0 0 0 0 0 
0 0 0 0 0 0 0 0 0 
0 0 0 0 0 0 0 0 0 
0 0 0 0 0 0 0 0 0 
0 0 0 0 0 0 0 0 0 
0 0 0 0 0 0 0 0 0 
0 0 0 0 0 0 0 0 0 
0 0 0 0 0 0 0 0 0 
0 0 0 0 0 0 0 0 0 
0 0 0 0 0 0 0 0 0 
0 0 0 0 0 0 0 0 0 
0 0 0 0 0 0 0 0 0 
0 0 0 0 0 0 0 0 0 
0 0 0 0 0 0 0 0 0 
0 0 0 0 0 0 0 0 0 
0 0 0 0 0 0 0 0 0 
0 0 0 0 0 0 0 0 0 
0 0 0 0 0 0 0 0 0 
0 0 0 0 0 0 0 0 0 
0 0 0 0 0 0 0 0 0 
0 0 0 0 0 0 0 0 0 
0 0 0 0 0 0 0 0 0 
0 0 0 0 0 0 0 0 0 
0 0 0 0 0 0 0 0 0 
0 0 0 0 0 0 0 0 0 
0 0 0 0 0 0 0 0 0 
0 0 0 0 0 0 0 0 0 
0 0 0 0 0 0 0 0 0 
0 0 0 0 0 0 0 0 0 
0 0 0 0 0 0 0 0 0 
0 0 0 0 0 0 0 0 0 
0 0 0 0 0 0 0 0 0 
0 0 0 0 0 0 0 0 0 
0 0 0 0 0 0 0 0 0 
0 0 0 0 0 0 0 0 0 
0 0 0 0 0 0 0 0 0 
0 0 0 0 0 0 0 0 0 
0 0 0 0 0 0 0 0 0 
0 0 0 0 0 0 0 0 0 
0 0 0 0 0 0 0 0 0 
0 0 0 0 0 0 0 0 0 
0 0 0 0 0 0 0 0 0 
0 0 0 0 0 0 0 0 0 
0 0 0 0 0 0 0 0 0 
0 0 0 0 0 0 0 0 0 
0 0 0 0 0 0 0 0 0 
0 0 0 0 0 0 0 0 0 
0 0 0 0 0 0 0 0 0 
0 0 0 0 0 0 0 0 0 
0 0 0 0 0 0 0 0 0 
0 0 0 0 0 0 0 0 0 
0 0 0 0 0 0 0 0 0 
0 0 0 0 0 0 0 0 0 
0 0 0 0 0 0 0 0 0 
0 0 0 0 0 0 0 0 0 
0 0 0 0 0 0 0 0 0 
0 0 0 0 0 0 0 0 0 
0 0 0 0 0 0 0 0 0 
0 0 0 0 0 0 0 0 0 
0 0 0 0 0 0 0 0 0 
0 0 0 0 0 0 0 0 0 
0 0 0 0 0 0 0 0 0 
0 0 0 0 0 0 0 0 0 
0 0 0 0 0 0 0 0 0 
0 0 0 0 0 0 0 0 0 
0 0 0 0 0 0 0 0 0 
0 0 0 0 0 0 0 0 0 
0 0 0 0 0 0 0 0 0 
0 0 0 0 0 0 0 0 0 
0 0 0 0 0 0 0 0 0 
0 0 0 0 0 0 0 0 0 
0 0 0 0 0 0 0 0 0 
0 0 0 0 0 0 0 0 0 
0 0 0 0 0 0 0 0 0 
0 0 0 0 0 0 0 0 0 
0 0 0 0 0 0 0 0 0 
0 0 0 0 0 0 0 0 0 
0 0 0 0 0 0 0 0 0 
0 0 0 0 0 0 0 0 0 
0 0 0 0 0 0 0 0 0 
0 
POINT_DATA 2676
NORMALS Normals float
-0.0320265 -0.999381 0.0145413 -0.0320265 -0.999381 0.0145413 -0.0320265 -0.999381 0.0145413 
-0.399655 -0.901728 0.164808 -0.399655 -0.901728 0.164808 -0.399655 -0.901728 0.164808 
-0.325816 -0.735128 0.594501 -0.325816 -0.735128 0.594501 -0.325816 -0.735128 0.594501 
-0.210574 -0.891871 -0.400281 -0.210574 -0.891871 -0.400281 -0.210574 -0.891871 -0.400281 
-0.358325 -0.73616 0.57417 -0.358325 -0.73616 0.57417 -0.358325 -0.73616 0.57417 
-0.359637 -0.737529 0.571587 -0.359637 -0.737529 0.571587 -0.359637 -0.737529 0.571587 
0.143954 -0.746074 -0.650116 0.143954 -0.746074 -0.650116 0.143954 -0.746074 -0.650116 
-0.0765842 -0.909648 -0.408259 -0.0765842 -0.909648 -0.408259 -0.0765842 -0.909648 -0.408259 
-0.0838327 -0.995744 -0.0382917 -0.0838327 -0.995744 -0.0382917 -0.0838327 -0.995744 -0.0382917 
0.159888 -0.744227 -0.648508 0.159888 -0.744227 -0.648508 0.159888 -0.744227 -0.648508 
-0.176523 -0.866885 0.466209 -0.176523 -0.866885 0.466209 -0.176523 -0.866885 0.466209 
0.204649 -0.952578 -0.225198 0.204649 -0.952578 -0.225198 0.204649 -0.952578 -0.225198 
0.257787 -0.940283 -0.222291 0.257787 -0.940283 -0.222291 0.257787 -0.940283 -0.222291 
0.434359 -0.900464 -0.022294 0.434359 -0.900464 -0.022294 0.434359 -0.900464 -0.022294 
0.0795156 -0.79635 0.599586 0.0795156 -0.79635 0.599586 0.0795156 -0.79635 0.599586 
-0.241281 -0.824237 -0.512267 -0.241281 -0.824237 -0.512267 -0.241281 -0.824237 -0.512267 
-0.388246 -0.492279 0.779055 -0.388246 -0.492279 0.779055 -0.388246 -0.492279 0.779055 
0.213751 -0.708118 -0.672963 0.213751 -0.708118 -0.672963 0.213751 -0.708118 -0.672963 
-0.24674 -0.451045 0.857717 -0.24674 -0.451045 0.857717 -0.24674 -0.451045 0.857717 
0.0777191 -0.805531 0.587435 0.0777191 -0.805531 0.587435 0.0777191 -0.805531 0.587435 
0.414694 -0.659604 -0.626858 0.414694 -0.659604 -0.626858 0.414694 -0.659604 -0.626858 
0.475058 -0.755618 -0.450956 0.475058 -0.755618 -0.450956 0.475058 -0.755618 -0.450956 
0.529001 -0.75866 -0.380255 0.529001 -0.75866 -0.380255 0.529001 -0.75866 -0.380255 
0.474081 -0.879217 -0.0471658 0.474081 -0.879217 -0.0471658 0.474081 -0.879217 -0.0471658 
0.517881 -0.853419 0.0589575 0.517881 -0.853419 0.0589575 0.517881 -0.853419 0.0589575 
-0.674974 -0.342607 -0.653476 -0.674974 -0.342607 -0.653476 -0.674974 -0.342607 -0.653476 
-0.525787 -0.35395 0.773477 -0.525787 -0.35395 0.773477 -0.525787 -0.35395 0.773477 
-0.0155855 -0.41203 -0.911037 -0.0155855 -0.41203 -0.911037 -0.0155855 -0.41203 -0.911037 
-0.441841 -0.373289 0.81574 -0.441841 -0.373289 0.81574 -0.441841 -0.373289 0.81574 
0.0470414 -0.448602 -0.892493 0.0470414 -0.448602 -0.892493 0.0470414 -0.448602 -0.892493 
0.261181 -0.505597 -0.822287 0.261181 -0.505597 -0.822287 0.261181 -0.505597 -0.822287 
-0.0255967 -0.503574 0.863573 -0.0255967 -0.503574 0.863573 -0.0255967 -0.503574 0.863573 
0.416722 -0.476131 -0.774365 0.416722 -0.476131 -0.774365 0.416722 -0.476131 -0.774365 
0.452599 -0.571915 -0.684155 0.452599 -0.571915 -0.684155 0.452599 -0.571915 -0.684155 
0.12451 -0.786226 0.605265 0.12451 -0.786226 0.605265 0.12451 -0.786226 0.605265 
0.550037 -0.566872 -0.613282 0.550037 -0.566872 -0.613282 0.550037 -0.566872 -0.613282 
0.575285 -0.705723 -0.413525 0.575285 -0.705723 -0.413525 0.575285 -0.705723 -0.413525 
0.23627 -0.796222 0.556962 0.23627 -0.796222 0.556962 0.23627 -0.796222 0.556962 
-0.888669 -0.451077 0.0824427 -0.888669 -0.451077 0.0824427 -0.888669 -0.451077 0.0824427 
-0.888032 -0.419168 0.188938 -0.888032 -0.419168 0.188938 -0.888032 -0.419168 0.188938 
-0.680461 -0.352569 -0.642392 -0.680461 -0.352569 -0.642392 -0.680461 -0.352569 -0.642392 
-0.664277 -0.313552 0.678544 -0.664277 -0.313552 0.678544 -0.664277 -0.313552 0.678544 
-0.225079 -0.257315 -0.939749 -0.225079 -0.257315 -0.939749 -0.225079 -0.257315 -0.939749 
-0.523465 -0.357412 0.77346 -0.523465 -0.357412 0.77346 -0.523465 -0.357412 0.77346 
-0.0748693 -0.310498 -0.947621 -0.0748693 -0.310498 -0.947621 -0.0748693 -0.310498 -0.947621 
0.198931 -0.378285 -0.904061 0.198931 -0.378285 -0.904061 0.198931 -0.378285 -0.904061 
-0.235476 -0.408806 0.881719 -0.235476 -0.408806 0.881719 -0.235476 -0.408806 0.881719 
0.0248667 -0.474714 0.879789 0.0248667 -0.474714 0.879789 0.0248667 -0.474714 0.879789 
0.570252 -0.705198 -0.421318 0.570252 -0.705198 -0.421318 0.570252 -0.705198 -0.421318 
0.628362 -0.77706 0.0365795 0.628362 -0.77706 0.0365795 0.628362 -0.77706 0.0365795 
0.511748 -0.84491 -0.155695 0.511748 -0.84491 -0.155695 0.511748 -0.84491 -0.155695 
0.391445 -0.646287 0.655045 0.391445 -0.646287 0.655045 0.391445 -0.646287 0.655045 
0.387473 -0.705027 0.593971 0.387473 -0.705027 0.593971 0.387473 -0.705027 0.593971 
-0.339766 -0.138158 0.930307 -0.339766 -0.138158 0.930307 -0.339766 -0.138158 0.930307 
-0.475858 -0.129199 0.869981 -0.475858 -0.129199 0.869981 -0.475858 -0.129199 0.869981 
-0.471769 -0.137137 0.870992 -0.471769 -0.137137 0.870992 -0.471769 -0.137137 0.870992 
0.189747 -0.398651 -0.897259 0.189747 -0.398651 -0.897259 0.189747 -0.398651 -0.897259 
0.258516 -0.36293 -0.895238 0.258516 -0.36293 -0.895238 0.258516 -0.36293 -0.895238 
-0.302225 -0.213685 0.928977 -0.302225 -0.213685 0.928977 -0.302225 -0.213685 0.928977 
-0.301896 -0.214131 0.928982 -0.301896 -0.214131 0.928982 -0.301896 -0.214131 0.928982 
0.416043 -0.392633 -0.820212 0.416043 -0.392633 -0.820212 0.416043 -0.392633 -0.820212 
-0.121925 -0.222935 0.967179 -0.121925 -0.222935 0.967179 -0.121925 -0.222935 0.967179 
0.00601388 -0.395569 0.918417 0.00601388 -0.395569 0.918417 0.00601388 -0.395569 0.918417 
0.567285 -0.513506 -0.643816 0.567285 -0.513506 -0.643816 0.567285 -0.513506 -0.643816 
0.623768 -0.510326 -0.592014 0.623768 -0.510326 -0.592014 0.623768 -0.510326 -0.592014 
0.620267 -0.636597 -0.458271 0.620267 -0.636597 -0.458271 0.620267 -0.636597 -0.458271 
0.474565 -0.641657 0.602549 0.474565 -0.641657 0.602549 0.474565 -0.641657 0.602549 
0.687208 -0.7053 -0.174061 0.687208 -0.7053 -0.174061 0.687208 -0.7053 -0.174061 
0.644877 -0.755418 -0.116091 0.644877 -0.755418 -0.116091 0.644877 -0.755418 -0.116091 
0.530791 -0.621777 0.575894 0.530791 -0.621777 0.575894 0.530791 -0.621777 0.575894 
0.591283 -0.647372 0.480931 0.591283 -0.647372 0.480931 0.591283 -0.647372 0.480931 
0.390789 -0.415608 -0.821312 0.390789 -0.415608 -0.821312 0.390789 -0.415608 -0.821312 
0.525038 -0.472511 -0.707862 0.525038 -0.472511 -0.707862 0.525038 -0.472511 -0.707862 
0.280795 -0.379661 0.881483 0.280795 -0.379661 0.881483 0.280795 -0.379661 0.881483 
-0.832146 0.277224 -0.480291 -0.832146 0.277224 -0.480291 -0.832146 0.277224 -0.480291 
-0.929981 0.309817 0.197863 -0.929981 0.309817 0.197863 -0.929981 0.309817 0.197863 
-0.961003 0.270941 0.0553606 -0.961003 0.270941 0.0553606 -0.961003 0.270941 0.0553606 
-0.721903 0.119969 -0.681516 -0.721903 0.119969 -0.681516 -0.721903 0.119969 -0.681516 
-0.229582 0.168736 -0.958551 -0.229582 0.168736 -0.958551 -0.229582 0.168736 -0.958551 
-0.0208013 -0.150869 -0.988335 -0.0208013 -0.150869 -0.988335 -0.0208013 -0.150869 -0.988335 
0.0750078 -0.169273 -0.982711 0.0750078 -0.169273 -0.982711 0.0750078 -0.169273 -0.982711 
0.0772331 -0.168699 -0.982637 0.0772331 -0.168699 -0.982637 0.0772331 -0.168699 -0.982637 
0.19002 -0.21398 -0.958178 0.19002 -0.21398 -0.958178 0.19002 -0.21398 -0.958178 
0.280062 -0.37627 0.883168 0.280062 -0.37627 0.883168 0.280062 -0.37627 0.883168 
0.634386 -0.503871 -0.586233 0.634386 -0.503871 -0.586233 0.634386 -0.503871 -0.586233 
0.786422 -0.584691 -0.19919 0.786422 -0.584691 -0.19919 0.786422 -0.584691 -0.19919 
0.817162 -0.570633 -0.0813951 0.817162 -0.570633 -0.0813951 0.817162 -0.570633 -0.0813951 
0.81531 -0.56934 0.105459 0.81531 -0.56934 0.105459 0.81531 -0.56934 0.105459 
-0.665923 0.206589 0.716846 -0.665923 0.206589 0.716846 -0.665923 0.206589 0.716846 
-0.686333 0.193502 0.701074 -0.686333 0.193502 0.701074 -0.686333 0.193502 0.701074 
-0.452366 0.131062 0.88215 -0.452366 0.131062 0.88215 -0.452366 0.131062 0.88215 
-0.329421 0.0952839 -0.939363 -0.329421 0.0952839 -0.939363 -0.329421 0.0952839 -0.939363 
-0.470418 0.118828 0.874406 -0.470418 0.118828 0.874406 -0.470418 0.118828 0.874406 
-0.476164 0.12421 0.87054 -0.476164 0.12421 0.87054 -0.476164 0.12421 0.87054 
-0.309336 0.015134 0.950832 -0.309336 0.015134 0.950832 -0.309336 0.015134 0.950832 
-0.124671 -0.0800612 0.988963 -0.124671 -0.0800612 0.988963 -0.124671 -0.0800612 0.988963 
-0.1539 -0.0404104 0.98726 -0.1539 -0.0404104 0.98726 -0.1539 -0.0404104 0.98726 
0.783037 -0.562381 -0.265672 0.783037 -0.562381 -0.265672 0.783037 -0.562381 -0.265672 
-0.788844 0.412831 -0.455298 -0.788844 0.412831 -0.455298 -0.788844 0.412831 -0.455298 
-0.641261 0.335071 0.690298 -0.641261 0.335071 0.690298 -0.641261 0.335071 0.690298 
-0.428482 0.156309 0.889928 -0.428482 0.156309 0.889928 -0.428482 0.156309 0.889928 
-0.389917 0.140416 0.910081 -0.389917 0.140416 0.910081 -0.389917 0.140416 0.910081 
0.179369 -0.212639 -0.960527 0.179369 -0.212639 -0.960527 0.179369 -0.212639 -0.960527 
0.146057 -0.169133 0.974711 0.146057 -0.169133 0.974711 0.146057 -0.169133 0.974711 
0.707646 -0.508235 -0.490851 0.707646 -0.508235 -0.490851 0.707646 -0.508235 -0.490851 
-0.791458 0.609521 0.0455936 -0.791458 0.609521 0.0455936 -0.791458 0.609521 0.0455936 
-0.776579 0.406412 0.481409 -0.776579 0.406412 0.481409 -0.776579 0.406412 0.481409 
-0.475222 0.421064 -0.772573 -0.475222 0.421064 -0.772573 -0.475222 0.421064 -0.772573 
-0.646824 0.512275 -0.564972 -0.646824 0.512275 -0.564972 -0.646824 0.512275 -0.564972 
-0.679907 0.523613 0.513377 -0.679907 0.523613 0.513377 -0.679907 0.523613 0.513377 
-0.523606 0.0352575 -0.851231 -0.523606 0.0352575 -0.851231 -0.523606 0.0352575 -0.851231 
-0.53916 0.367769 0.757662 -0.53916 0.367769 0.757662 -0.53916 0.367769 0.757662 
-0.19257 0.0232891 -0.981007 -0.19257 0.0232891 -0.981007 -0.19257 0.0232891 -0.981007 
0.384943 -0.340704 -0.857753 0.384943 -0.340704 -0.857753 0.384943 -0.340704 -0.857753 
0.191124 -0.0801162 0.978291 0.191124 -0.0801162 0.978291 0.191124 -0.0801162 0.978291 
0.286503 -0.0781992 0.954883 0.286503 -0.0781992 0.954883 0.286503 -0.0781992 0.954883 
0.733754 -0.324682 0.596813 0.733754 -0.324682 0.596813 0.733754 -0.324682 0.596813 
0.668893 -0.258093 0.697116 0.668893 -0.258093 0.697116 0.668893 -0.258093 0.697116 
0.595744 -0.246996 0.764252 0.595744 -0.246996 0.764252 0.595744 -0.246996 0.764252 
0.922009 -0.38715 0.0037331 0.922009 -0.38715 0.0037331 0.922009 -0.38715 0.0037331 
0.862309 -0.362082 0.354006 0.862309 -0.362082 0.354006 0.862309 -0.362082 0.354006 
0.882619 -0.390554 0.261632 0.882619 -0.390554 0.261632 0.882619 -0.390554 0.261632 
-0.658353 0.612983 -0.436832 -0.658353 0.612983 -0.436832 -0.658353 0.612983 -0.436832 
-0.713634 0.664454 0.221873 -0.713634 0.664454 0.221873 -0.713634 0.664454 0.221873 
-0.532357 0.430182 0.729068 -0.532357 0.430182 0.729068 -0.532357 0.430182 0.729068 
-0.148761 0.259221 0.954293 -0.148761 0.259221 0.954293 -0.148761 0.259221 0.954293 
-0.0768741 0.0735089 0.994327 -0.0768741 0.0735089 0.994327 -0.0768741 0.0735089 0.994327 
0.358253 -0.344648 -0.867682 0.358253 -0.344648 -0.867682 0.358253 -0.344648 -0.867682 
0.515406 -0.421571 -0.746079 0.515406 -0.421571 -0.746079 0.515406 -0.421571 -0.746079 
0.584706 -0.418914 -0.694715 0.584706 -0.418914 -0.694715 0.584706 -0.418914 -0.694715 
0.812049 -0.4294 -0.395213 0.812049 -0.4294 -0.395213 0.812049 -0.4294 -0.395213 
0.889163 -0.413747 -0.195456 0.889163 -0.413747 -0.195456 0.889163 -0.413747 -0.195456 
0.915473 -0.387022 -0.110103 0.915473 -0.387022 -0.110103 0.915473 -0.387022 -0.110103 
0.920991 -0.389354 0.0133817 0.920991 -0.389354 0.0133817 0.920991 -0.389354 0.0133817 
-0.611511 0.564984 0.553938 -0.611511 0.564984 0.553938 -0.611511 0.564984 0.553938 
-0.590425 0.56006 0.581147 -0.590425 0.56006 0.581147 -0.590425 0.56006 0.581147 
-0.177937 0.0309651 -0.983555 -0.177937 0.0309651 -0.983555 -0.177937 0.0309651 -0.983555 
-0.449339 0.47229 0.758312 -0.449339 0.47229 0.758312 -0.449339 0.47229 0.758312 
-0.00790588 -0.0554884 -0.998428 -0.00790588 -0.0554884 -0.998428 -0.00790588 -0.0554884 -0.998428 
-0.298869 0.239986 0.923626 -0.298869 0.239986 0.923626 -0.298869 0.239986 0.923626 
0.583135 -0.421606 -0.694407 0.583135 -0.421606 -0.694407 0.583135 -0.421606 -0.694407 
0.424615 0.0812159 0.901724 0.424615 0.0812159 0.901724 0.424615 0.0812159 0.901724 
0.639093 -0.120385 0.75965 0.639093 -0.120385 0.75965 0.639093 -0.120385 0.75965 
-0.614899 0.618515 -0.489222 -0.614899 0.618515 -0.489222 -0.614899 0.618515 -0.489222 
-0.718073 0.663438 0.210288 -0.718073 0.663438 0.210288 -0.718073 0.663438 0.210288 
-0.609066 0.612648 -0.503687 -0.609066 0.612648 -0.503687 -0.609066 0.612648 -0.503687 
-0.362617 0.231335 -0.90277 -0.362617 0.231335 -0.90277 -0.362617 0.231335 -0.90277 
-0.259279 0.161339 -0.952231 -0.259279 0.161339 -0.952231 -0.259279 0.161339 -0.952231 
-0.491709 0.373921 0.786388 -0.491709 0.373921 0.786388 -0.491709 0.373921 0.786388 
0.00694568 -0.0256407 -0.999647 0.00694568 -0.0256407 -0.999647 0.00694568 -0.0256407 -0.999647 
0.180156 -0.191896 -0.964738 0.180156 -0.191896 -0.964738 0.180156 -0.191896 -0.964738 
0.365379 -0.288754 -0.88494 0.365379 -0.288754 -0.88494 0.365379 -0.288754 -0.88494 
0.0380687 0.187262 0.981572 0.0380687 0.187262 0.981572 0.0380687 0.187262 0.981572 
0.50758 -0.320473 -0.799787 0.50758 -0.320473 -0.799787 0.50758 -0.320473 -0.799787 
0.504799 -0.0731562 0.860132 0.504799 -0.0731562 0.860132 0.504799 -0.0731562 0.860132 
0.630506 -0.399669 -0.665378 0.630506 -0.399669 -0.665378 0.630506 -0.399669 -0.665378 
0.853353 -0.12756 0.505488 0.853353 -0.12756 0.505488 0.853353 -0.12756 0.505488 
-0.393623 0.876305 0.27776 -0.393623 0.876305 0.27776 -0.393623 0.876305 0.27776 
-0.585289 0.810201 0.0317956 -0.585289 0.810201 0.0317956 -0.585289 0.810201 0.0317956 
-0.494922 0.685109 0.534489 -0.494922 0.685109 0.534489 -0.494922 0.685109 0.534489 
-0.472272 0.446978 -0.759717 -0.472272 0.446978 -0.759717 -0.472272 0.446978 -0.759717 
-0.687386 0.598032 -0.41214 -0.687386 0.598032 -0.41214 -0.687386 0.598032 -0.41214 
0.103643 -0.0741303 -0.991848 0.103643 -0.0741303 -0.991848 0.103643 -0.0741303 -0.991848 
0.0381268 0.179211 0.983072 0.0381268 0.179211 0.983072 0.0381268 0.179211 0.983072 
0.181655 0.246382 0.951997 0.181655 0.246382 0.951997 0.181655 0.246382 0.951997 
0.950848 -0.144456 0.273899 0.950848 -0.144456 0.273899 0.950848 -0.144456 0.273899 
0.837812 -0.155549 0.523332 0.837812 -0.155549 0.523332 0.837812 -0.155549 0.523332 
0.879192 -0.464587 -0.105739 0.879192 -0.464587 -0.105739 0.879192 -0.464587 -0.105739 
0.919026 -0.381179 0.100464 0.919026 -0.381179 0.100464 0.919026 -0.381179 0.100464 
0.724928 -0.300674 0.619737 0.724928 -0.300674 0.619737 0.724928 -0.300674 0.619737 
-0.671404 0.638261 -0.376616 -0.671404 0.638261 -0.376616 -0.671404 0.638261 -0.376616 
-0.654377 0.750024 0.0961989 -0.654377 0.750024 0.0961989 -0.654377 0.750024 0.0961989 
-0.724505 0.68874 0.027029 -0.724505 0.68874 0.027029 -0.724505 0.68874 0.027029 
-0.619956 0.63683 0.458368 -0.619956 0.63683 0.458368 -0.619956 0.63683 0.458368 
-0.609833 0.69897 0.373556 -0.609833 0.69897 0.373556 -0.609833 0.69897 0.373556 
-0.375894 0.584801 -0.718827 -0.375894 0.584801 -0.718827 -0.375894 0.584801 -0.718827 
-0.534393 0.548938 0.642721 -0.534393 0.548938 0.642721 -0.534393 0.548938 0.642721 
0.103839 -0.0415762 -0.993725 0.103839 -0.0415762 -0.993725 0.103839 -0.0415762 -0.993725 
0.29771 -0.186242 -0.936313 0.29771 -0.186242 -0.936313 0.29771 -0.186242 -0.936313 
0.505808 0.0370397 0.861851 0.505808 0.0370397 0.861851 0.505808 0.0370397 0.861851 
0.805576 -0.406829 -0.43074 0.805576 -0.406829 -0.43074 0.805576 -0.406829 -0.43074 
0.871267 -0.334427 -0.359238 0.871267 -0.334427 -0.359238 0.871267 -0.334427 -0.359238 
-0.443522 0.775855 -0.448706 -0.443522 0.775855 -0.448706 -0.443522 0.775855 -0.448706 
-0.134015 0.285913 -0.948838 -0.134015 0.285913 -0.948838 -0.134015 0.285913 -0.948838 
-0.35117 0.362964 0.863097 -0.35117 0.362964 0.863097 -0.35117 0.362964 0.863097 
-0.331353 0.347461 0.877198 -0.331353 0.347461 0.877198 -0.331353 0.347461 0.877198 
0.288088 -0.134789 -0.94807 0.288088 -0.134789 -0.94807 0.288088 -0.134789 -0.94807 
-0.159377 0.363558 0.917837 -0.159377 0.363558 0.917837 -0.159377 0.363558 0.917837 
0.492875 -0.337535 -0.801963 0.492875 -0.337535 -0.801963 0.492875 -0.337535 -0.801963 
0.483592 0.0663235 0.872777 0.483592 0.0663235 0.872777 0.483592 0.0663235 0.872777 
0.78078 -0.535485 -0.321928 0.78078 -0.535485 -0.321928 0.78078 -0.535485 -0.321928 
-0.442801 0.623063 -0.644764 -0.442801 0.623063 -0.644764 -0.442801 0.623063 -0.644764 
-0.56428 0.793996 -0.226182 -0.56428 0.793996 -0.226182 -0.56428 0.793996 -0.226182 
-0.615921 0.698193 0.36492 -0.615921 0.698193 0.36492 -0.615921 0.698193 0.36492 
-0.530162 0.418689 -0.737312 -0.530162 0.418689 -0.737312 -0.530162 0.418689 -0.737312 
-0.509957 0.575785 0.639074 -0.509957 0.575785 0.639074 -0.509957 0.575785 0.639074 
-0.0848773 0.251783 -0.964055 -0.0848773 0.251783 -0.964055 -0.0848773 0.251783 -0.964055 
0.0529657 0.0357193 -0.997957 0.0529657 0.0357193 -0.997957 0.0529657 0.0357193 -0.997957 
-0.35682 0.236061 -0.903856 -0.35682 0.236061 -0.903856 -0.35682 0.236061 -0.903856 
-0.152766 0.369499 0.916588 -0.152766 0.369499 0.916588 -0.152766 0.369499 0.916588 
0.230866 -0.287826 -0.929439 0.230866 -0.287826 -0.929439 0.230866 -0.287826 -0.929439 
0.233355 -0.286864 -0.929115 0.233355 -0.286864 -0.929115 0.233355 -0.286864 -0.929115 
0.496154 -0.345289 -0.796622 0.496154 -0.345289 -0.796622 0.496154 -0.345289 -0.796622 
0.635387 -0.43415 -0.63859 0.635387 -0.43415 -0.63859 0.635387 -0.43415 -0.63859 
0.706696 -0.41495 -0.573059 0.706696 -0.41495 -0.573059 0.706696 -0.41495 -0.573059 
0.890824 -0.451993 -0.0462089 0.890824 -0.451993 -0.0462089 0.890824 -0.451993 -0.0462089 
0.862166 -0.437452 0.25555 0.862166 -0.437452 0.25555 0.862166 -0.437452 0.25555 