# vtk DataFile Version 4.2
3D Slicer output. SPACE=LPS
ASCII
DATASET POLYDATA
POINTS 2580 double
3.9613518715 -3.7177658081 -0.98278331757 4.7450227737 -4.2337040901 -0.18581581116 3.1776809692 -3.8877358437 -0.18581581116 
4.7450227737 -4.2337040901 -0.18581581116 3.1951217651 -3.6958446503 0.61115074158 3.1776809692 -3.8877358437 -0.18581581116 
3.9613518715 -3.7177658081 -0.98278331757 4.7450227737 -2.9175357819 -1.724448204 7.8797054291 -4.0797863007 -0.18581581116 
4.7450227737 -4.2337040901 -0.18581581116 3.9613518715 -3.7177658081 -0.98278331757 7.8797054291 -4.0797863007 -0.18581581116 
4.7450227737 -4.2337040901 -0.18581581116 6.3123636246 -4.2887306213 1.408118248 3.1951217651 -3.6958446503 0.61115074158 
7.8797054291 -4.402864933 0.61115074158 4.7450227737 -4.2337040901 -0.18581581116 7.8797054291 -4.0797863007 -0.18581581116 
7.8797054291 -4.3752541542 1.408118248 4.7450227737 -4.2337040901 -0.18581581116 7.8797054291 -4.402864933 0.61115074158 
7.8797054291 -4.3752541542 1.408118248 6.3123636246 -4.2887306213 1.408118248 4.7450227737 -4.2337040901 -0.18581581116 
7.0960350037 -3.6958446503 2.4029388428 6.3123636246 -4.2887306213 1.408118248 7.8797054291 -4.3752541542 1.408118248 
7.8797054291 -4.3752541542 1.408118248 9.4470462799 -3.5855994225 2.2050848007 7.0960350037 -3.6958446503 2.4029388428 
7.8797054291 -4.402864933 0.61115074158 10.230716705 -3.51841259 1.408118248 7.8797054291 -4.3752541542 1.408118248 
10.230716705 -3.51841259 1.408118248 9.4470462799 -3.5855994225 2.2050848007 7.8797054291 -4.3752541542 1.408118248 
0.22573900223 -0.58260917664 -0.18581581116 1.6103401184 -3.0148115158 -0.98278331757 1.6103401184 -2.9848475456 0.61115074158 
1.6103401184 -3.0148115158 -0.98278331757 3.1776809692 -3.8877358437 -0.18581581116 1.6103401184 -2.9848475456 0.61115074158 
3.1776809692 -3.8877358437 -0.18581581116 1.6103401184 -3.0148115158 -0.98278331757 3.9613518715 -3.7177658081 -0.98278331757 
3.1951217651 -3.6958446503 0.61115074158 1.6103401184 -2.9848475456 0.61115074158 3.1776809692 -3.8877358437 -0.18581581116 
1.6103401184 -2.9848475456 0.61115074158 3.1951217651 -3.6958446503 0.61115074158 1.6103401184 -2.1392269135 1.1259231567 
3.9613518715 -3.7177658081 -0.98278331757 1.6103401184 -3.0148115158 -0.98278331757 4.7450227737 -2.9175357819 -1.724448204 
6.3123636246 -4.2887306213 1.408118248 1.6103401184 -2.1392269135 1.1259231567 3.1951217651 -3.6958446503 0.61115074158 
1.6103401184 -2.1392269135 1.1259231567 6.3123636246 -4.2887306213 1.408118248 7.0960350037 -3.6958446503 2.4029388428 
7.0960350037 -3.6958446503 2.4029388428 6.3123636246 -2.1392269135 3.0207567215 1.6103401184 -2.1392269135 1.1259231567 
7.8797054291 -2.9175357819 -1.3900079727 7.8797054291 -4.0797863007 -0.18581581116 4.7450227737 -2.9175357819 -1.724448204 
7.0960350037 -3.6958446503 2.4029388428 9.4470462799 -3.5855994225 2.2050848007 8.6633758545 -2.9284615517 3.0020523071 
7.8797054291 -2.9175357819 -1.3900079727 10.230716705 -2.1636843681 -0.98278331757 7.8797054291 -4.0797863007 -0.18581581116 
7.8797054291 -4.0797863007 -0.18581581116 11.003641129 -2.9175357819 0.61115074158 7.8797054291 -4.402864933 0.61115074158 
11.003641129 -2.9175357819 0.61115074158 10.230716705 -3.51841259 1.408118248 7.8797054291 -4.402864933 0.61115074158 
8.6633758545 -2.9284615517 3.0020523071 9.4470462799 -3.5855994225 2.2050848007 11.79805851 -2.1534180641 3.0020523071 
11.003641129 -2.9175357819 0.61115074158 7.8797054291 -4.0797863007 -0.18581581116 10.230716705 -2.1636843681 -0.98278331757 
1.6103401184 -1.360918045 -1.8136115074 1.6103401184 -3.0148115158 -0.98278331757 0.22573900223 -0.58260917664 -0.18581581116 
1.6103401184 -3.0148115158 -0.98278331757 1.6103401184 -1.360918045 -1.8136115074 3.1776809692 -1.360918045 -2.224752903 
3.1776809692 -1.360918045 -2.224752903 4.7450227737 -2.1392269135 -2.1291093826 4.7450227737 -2.9175357819 -1.724448204 
4.7450227737 -2.9175357819 -1.724448204 1.6103401184 -3.0148115158 -0.98278331757 3.1776809692 -1.360918045 -2.224752903 
1.6103401184 -0.58260917664 1.5002985001 1.6103401184 -2.1392269135 1.1259231567 6.3123636246 -2.1392269135 3.0207567215 
7.8797054291 -2.9175357819 -1.3900079727 4.7450227737 -2.9175357819 -1.724448204 4.7450227737 -2.1392269135 -2.1291093826 
6.3123636246 -2.1392269135 3.0207567215 7.0960350037 -3.6958446503 2.4029388428 8.6633758545 -2.9284615517 3.0020523071 
8.6633758545 -2.9284615517 3.0020523071 11.79805851 -2.1534180641 3.0020523071 10.230716705 -1.360918045 3.8379745483 
10.230716705 -2.1636843681 -0.98278331757 13.524866104 -1.360918045 1.408118248 11.003641129 -2.9175357819 0.61115074158 
11.003641129 -2.9175357819 0.61115074158 13.524866104 -1.360918045 1.408118248 10.230716705 -3.51841259 1.408118248 
10.230716705 -3.51841259 1.408118248 11.79805851 -2.5515179634 2.2050848007 9.4470462799 -3.5855994225 2.2050848007 
9.4470462799 -3.5855994225 2.2050848007 11.79805851 -2.5515179634 2.2050848007 11.79805851 -2.1534180641 3.0020523071 
0.22573900223 -0.58260917664 -0.18581581116 1.6103401184 -2.9848475456 0.61115074158 1.6103401184 -2.1392269135 1.1259231567 
8.6633758545 -2.9284615517 3.0020523071 7.8797054291 -0.58260917664 3.7487592697 6.3123636246 -2.1392269135 3.0207567215 
10.230716705 -1.360918045 3.8379745483 7.8797054291 -0.58260917664 3.7487592697 8.6633758545 -2.9284615517 3.0020523071 
7.8797054291 -2.9175357819 -1.3900079727 8.6633758545 -0.58260917664 -2.4790668488 10.230716705 -2.1636843681 -0.98278331757 
10.230716705 -2.1636843681 -0.98278331757 11.79805851 -0.58260917664 -1.1479063034 13.121032715 -0.58260917664 -0.18581581116 
10.230716705 -2.1636843681 -0.98278331757 13.121032715 -0.58260917664 -0.18581581116 13.524866104 -1.360918045 1.408118248 
13.524866104 -1.360918045 1.408118248 11.79805851 -2.5515179634 2.2050848007 10.230716705 -3.51841259 1.408118248 
11.79805851 -2.5515179634 2.2050848007 14.14907074 -0.59843540192 3.0020523071 11.79805851 -2.1534180641 3.0020523071 
14.999837875 0.19569969177 2.2050848007 11.79805851 -2.5515179634 2.2050848007 13.524866104 -1.360918045 1.408118248 
1.6103401184 -2.1392269135 1.1259231567 1.6103401184 -0.58260917664 1.5002985001 0.22573900223 -0.58260917664 -0.18581581116 
0.7540345192 0.19569969177 -0.98278331757 1.6103401184 -1.360918045 -1.8136115074 0.22573900223 -0.58260917664 -0.18581581116 
4.7450227737 -2.1392269135 -2.1291093826 3.1776809692 -1.360918045 -2.224752903 4.7450227737 0.97400856018 -2.8759112358 
4.7450227737 -2.1392269135 -2.1291093826 4.7450227737 0.97400856018 -2.8759112358 6.3123636246 0.19569969177 -2.920689106 
8.6633758545 -0.58260917664 -2.4790668488 4.7450227737 -2.1392269135 -2.1291093826 6.3123636246 0.19569969177 -2.920689106 
7.8797054291 -2.9175357819 -1.3900079727 4.7450227737 -2.1392269135 -2.1291093826 8.6633758545 -0.58260917664 -2.4790668488 
8.6633758545 -0.58260917664 -2.4790668488 11.79805851 -0.58260917664 -1.1479063034 10.230716705 -2.1636843681 -0.98278331757 
11.79805851 -2.1534180641 3.0020523071 12.581729889 -0.58260917664 4.0277996063 10.230716705 -1.360918045 3.8379745483 
14.14907074 -0.59843540192 3.0020523071 12.581729889 -0.58260917664 4.0277996063 11.79805851 -2.1534180641 3.0020523071 
13.524866104 -1.360918045 1.408118248 13.121032715 -0.58260917664 -0.18581581116 14.869853973 0.19569969177 1.408118248 
14.999837875 0.19569969177 2.2050848007 14.14907074 -0.59843540192 3.0020523071 11.79805851 -2.5515179634 2.2050848007 
0.22573900223 -0.58260917664 -0.18581581116 0.12298583984 0.19569969177 -0.18581581116 0.7540345192 0.19569969177 -0.98278331757 
0.22573900223 -0.58260917664 -0.18581581116 0.82912302017 0.97400856018 0.61115074158 0.12298583984 0.19569969177 -0.18581581116 
0.22573900223 -0.58260917664 -0.18581581116 1.6103401184 -0.58260917664 1.5002985001 0.82912302017 0.97400856018 0.61115074158 
1.5383257866 0.97400856018 -1.779750824 1.6103401184 -1.360918045 -1.8136115074 0.7540345192 0.19569969177 -0.98278331757 
3.1776809692 -1.360918045 -2.224752903 1.6103401184 -1.360918045 -1.8136115074 3.754948616 1.7523174286 -2.5767178535 
3.754948616 1.7523174286 -2.5767178535 1.6103401184 -1.360918045 -1.8136115074 1.5383257866 0.97400856018 -1.779750824 
4.7450227737 0.97400856018 -2.8759112358 3.1776809692 -1.360918045 -2.224752903 3.754948616 1.7523174286 -2.5767178535 
5.5286931992 0.19569969177 3.0896053314 1.6103401184 -0.58260917664 1.5002985001 6.3123636246 -2.1392269135 3.0207567215 
7.8797054291 -0.58260917664 3.7487592697 7.0960350037 0.97400856018 3.6283445358 6.3123636246 -2.1392269135 3.0207567215 
7.0960350037 0.97400856018 3.6283445358 5.5286931992 0.19569969177 3.0896053314 6.3123636246 -2.1392269135 3.0207567215 
10.230716705 -1.360918045 3.8379745483 11.014388084 0.97400856018 4.4920120239 7.8797054291 -0.58260917664 3.7487592697 
12.581729889 -0.58260917664 4.0277996063 11.014388084 0.97400856018 4.4920120239 10.230716705 -1.360918045 3.8379745483 
14.14907074 -0.59843540192 3.0020523071 14.14907074 0.97400856018 4.1259479523 12.581729889 -0.58260917664 4.0277996063 
14.999837875 0.19569969177 2.2050848007 13.524866104 -1.360918045 1.408118248 14.869853973 0.19569969177 1.408118248 
1.6103401184 -0.58260917664 1.5002985001 1.6103401184 1.7523174286 1.2058525085 0.82912302017 0.97400856018 0.61115074158 
5.5286931992 0.19569969177 3.0896053314 1.6103401184 1.7523174286 1.2058525085 1.6103401184 -0.58260917664 1.5002985001 
7.0960350037 0.97400856018 3.6283445358 6.3123636246 1.7523174286 3.2931413651 5.5286931992 0.19569969177 3.0896053314 
8.6633758545 -0.58260917664 -2.4790668488 6.3123636246 0.19569969177 -2.920689106 7.0960350037 2.530626297 -3.319562912 
10.230716705 2.530626297 -2.9658284187 8.6633758545 -0.58260917664 -2.4790668488 7.0960350037 2.530626297 -3.319562912 
11.014388084 0.97400856018 4.4920120239 7.0960350037 0.97400856018 3.6283445358 7.8797054291 -0.58260917664 3.7487592697 
[...]
CELL_DATA 860
FIELD FieldData 1
GroupIds 1 860 float
0 0 0 0 0 0 0 0 0 
0 0 0 0 0 0 0 0 0 
0 0 0 0 0 0 0 0 0 
0 0 0 0 0 0 0 0 0 
0 0 0 0 0 0 0 0 0 
0 0 0 0 0 0 0 0 0 
0 0 0 0 0 0 0 0 0 
0 0 0 0 0 0 0 0 0 
0 0 0 0 0 0 0 0 0 
0 0 0 0 0 0 0 0 0 
0 0 0 0 0 0 0 0 0 
0 0 0 0 0 0 0 0 0 
0 0 0 0 0 0 0 0 0 
0 0 0 0 0 0 0 0 0 
0 0 0 0 0 0 0 0 0 
0 0 0 0 0 0 0 0 0 
0 0 0 0 0 0 0 0 0 
0 0 0 0 0 0 0 0 0 
0 0 0 0 0 0 0 0 0 
0 0 0 0 0 0 0 0 0 
0 0 0 0 0 0 0 0 0 
0 0 0 0 0 0 0 0 0 
0 0 0 0 0 0 0 0 0 
0 0 0 0 0 0 0 0 0 
0 0 0 0 0 0 0 0 0 
0 0 0 0 0 0 0 0 0 
0 0 0 0 0 0 0 0 0 
0 0 0 0 0 0 0 0 0 
0 0 0 0 0 0 0 0 0 
0 0 0 0 0 0 0 0 0 
0 0 0 0 0 0 0 0 0 
0 0 0 0 0 0 0 0 0 
0 0 0 0 0 0 0 0 0 
0 0 0 0 0 0 0 0 0 
0 0 0 0 0 0 0 0 0 
0 0 0 0 0 0 0 0 0 
0 0 0 0 0 0 0 0 0 
0 0 0 0 0 0 0 0 0 
0 0 0 0 0 0 0 0 0 
0 0 0 0 0 0 0 0 0 
0 0 0 0 0 0 0 0 0 
0 0 0 0 0 0 0 0 0 
0 0 0 0 0 0 0 0 0 
0 0 0 0 0 0 0 0 0 
0 0 0 0 0 0 0 0 0 
0 0 0 0 0 0 0 0 0 
0 0 0 0 0 0 0 0 0 
0 0 0 0 0 0 0 0 0 
0 0 0 0 0 0 0 0 0 
0 0 0 0 0 0 0 0 0 
0 0 0 0 0 0 0 0 0 
0 0 0 0 0 0 0 0 0 
0 0 0 0 0 0 0 0 0 
0 0 0 0 0 0 0 0 0 
0 0 0 0 0 0 0 0 0 
0 0 0 0 0 0 0 0 0 
0 0 0 0 0 0 0 0 0 
0 0 0 0 0 0 0 0 0 
0 0 0 0 0 0 0 0 0 
0 0 0 0 0 0 0 0 0 
0 0 0 0 0 0 0 0 0 
0 0 0 0 0 0 0 0 0 
0 0 0 0 0 0 0 0 0 
0 0 0 0 0 0 0 0 0 
0 0 0 0 0 0 0 0 0 
0 0 0 0 0 0 0 0 0 
0 0 0 0 0 0 0 0 0 
0 0 0 0 0 0 0 0 0 
0 0 0 0 0 0 0 0 0 
0 0 0 0 0 0 0 0 0 
0 0 0 0 0 0 0 0 0 
0 0 0 0 0 0 0 0 0 
0 0 0 0 0 0 0 0 0 
0 0 0 0 0 0 0 0 0 
0 0 0 0 0 0 0 0 0 
0 0 0 0 0 0 0 0 0 
0 0 0 0 0 0 0 0 0 
0 0 0 0 0 0 0 0 0 
0 0 0 0 0 0 0 0 0 
0 0 0 0 0 0 0 0 0 
0 0 0 0 0 0 0 0 0 
0 0 0 0 0 0 0 0 0 
0 0 0 0 0 0 0 0 0 
0 0 0 0 0 0 0 0 0 
0 0 0 0 0 0 0 0 0 
0 0 0 0 0 0 0 0 0 
0 0 0 0 0 0 0 0 0 
0 0 0 0 0 0 0 0 0 
0 0 0 0 0 0 0 0 0 
0 0 0 0 0 0 0 0 0 
0 0 0 0 0 0 0 0 0 
0 0 0 0 0 0 0 0 0 
0 0 0 0 0 0 0 0 0 
0 0 0 0 0 0 0 0 0 
0 0 0 0 0 0 0 0 0 
0 0 0 0 0 
POINT_DATA 2580
NORMALS Normals float
-0.198716 -0.900243 -0.387396 -0.198716 -0.900243 -0.387396 -0.198716 -0.900243 -0.387396 
-0.209603 -0.949566 0.23322 -0.209603 -0.949566 0.23322 -0.209603 -0.949566 0.23322 
0.0749181 -0.716327 -0.693731 0.0749181 -0.716327 -0.693731 0.0749181 -0.716327 -0.693731 
0.0402749 -0.820236 -0.570605 0.0402749 -0.820236 -0.570605 0.0402749 -0.820236 -0.570605 
-0.230982 -0.953377 0.194216 -0.230982 -0.953377 0.194216 -0.230982 -0.953377 0.194216 
0.0454576 -0.925788 -0.375301 0.0454576 -0.925788 -0.375301 0.0454576 -0.925788 -0.375301 
-0.0626117 -0.99744 0.0345561 -0.0626117 -0.99744 0.0345561 -0.0626117 -0.99744 0.0345561 
-0.0551094 -0.998285 0.0197266 -0.0551094 -0.998285 0.0197266 -0.0551094 -0.998285 0.0197266 
-0.0464579 -0.841568 0.538149 -0.0464579 -0.841568 0.538149 -0.0464579 -0.841568 0.538149 
0.0881772 -0.788862 0.608212 0.0881772 -0.788862 0.608212 0.0881772 -0.788862 0.608212 
0.342242 -0.939048 0.0325332 0.342242 -0.939048 0.0325332 0.342242 -0.939048 0.0325332 
0.331606 -0.909864 0.249369 0.331606 -0.909864 0.249369 0.331606 -0.909864 0.249369 
-0.86769 -0.497019 0.00934333 -0.86769 -0.497019 0.00934333 -0.86769 -0.497019 0.00934333 
-0.49284 -0.869966 0.0163543 -0.49284 -0.869966 0.0163543 -0.49284 -0.869966 0.0163543 
-0.25765 -0.861705 -0.437128 -0.25765 -0.861705 -0.437128 -0.25765 -0.861705 -0.437128 
-0.399036 -0.889433 0.222888 -0.399036 -0.889433 0.222888 -0.399036 -0.889433 0.222888 
-0.227185 -0.506385 0.831842 -0.227185 -0.506385 0.831842 -0.227185 -0.506385 0.831842 
-0.171626 -0.573998 -0.800669 -0.171626 -0.573998 -0.800669 -0.171626 -0.573998 -0.800669 
-0.303603 -0.563238 0.768498 -0.303603 -0.563238 0.768498 -0.303603 -0.563238 0.768498 
-0.343033 -0.66303 0.665372 -0.343033 -0.66303 0.665372 -0.343033 -0.66303 0.665372 
-0.326634 -0.486143 0.81054 -0.326634 -0.486143 0.81054 -0.326634 -0.486143 0.81054 
0.0738902 -0.717559 -0.692567 0.0738902 -0.717559 -0.692567 0.0738902 -0.717559 -0.692567 
0.091562 -0.72224 0.685556 0.091562 -0.72224 0.685556 0.091562 -0.72224 0.685556 
0.331196 -0.678918 -0.655271 0.331196 -0.678918 -0.655271 0.331196 -0.678918 -0.655271 
0.403227 -0.848065 -0.343793 0.403227 -0.848065 -0.343793 0.403227 -0.848065 -0.343793 
0.41513 -0.873098 -0.25567 0.41513 -0.873098 -0.25567 0.41513 -0.873098 -0.25567 
0.166655 -0.674039 0.719651 0.166655 -0.674039 0.719651 0.166655 -0.674039 0.719651 
0.41094 -0.730871 -0.544937 0.41094 -0.730871 -0.544937 0.41094 -0.730871 -0.544937 
-0.793273 -0.273314 -0.544075 -0.793273 -0.273314 -0.544075 -0.793273 -0.273314 -0.544075 
-0.228218 -0.437044 -0.870005 -0.228218 -0.437044 -0.870005 -0.228218 -0.437044 -0.870005 
-0.172313 -0.454399 -0.873973 -0.172313 -0.454399 -0.873973 -0.172313 -0.454399 -0.873973 
-0.189645 -0.468315 -0.862969 -0.189645 -0.468315 -0.862969 -0.189645 -0.468315 -0.862969 
-0.364808 -0.217722 0.905269 -0.364808 -0.217722 0.905269 -0.364808 -0.217722 0.905269 
0.0942391 -0.459246 -0.883296 0.0942391 -0.459246 -0.883296 0.0942391 -0.459246 -0.883296 
-0.135048 -0.423516 0.895766 -0.135048 -0.423516 0.895766 -0.135048 -0.423516 0.895766 
0.141484 -0.572236 0.807792 0.141484 -0.572236 0.807792 0.141484 -0.572236 0.807792 
0.556141 -0.614017 -0.560081 0.556141 -0.614017 -0.560081 0.556141 -0.614017 -0.560081 
0.54521 -0.832449 -0.0988659 0.54521 -0.832449 -0.0988659 0.54521 -0.832449 -0.0988659 
0.383606 -0.872138 0.303682 0.383606 -0.872138 0.303682 0.383606 -0.872138 0.303682 
0.366159 -0.832472 0.415835 0.366159 -0.832472 0.415835 0.366159 -0.832472 0.415835 
-0.812513 -0.30312 0.497937 -0.812513 -0.30312 0.497937 -0.812513 -0.30312 0.497937 
-0.104384 -0.333152 0.937077 -0.104384 -0.333152 0.937077 -0.104384 -0.333152 0.937077 
-0.149334 -0.344864 0.926697 -0.149334 -0.344864 0.926697 -0.149334 -0.344864 0.926697 
0.297679 -0.483779 -0.82301 0.297679 -0.483779 -0.82301 0.297679 -0.483779 -0.82301 
0.489176 -0.555179 -0.672668 0.489176 -0.555179 -0.672668 0.489176 -0.555179 -0.672668 
0.51934 -0.708645 -0.477606 0.51934 -0.708645 -0.477606 0.51934 -0.708645 -0.477606 
0.546824 -0.834913 -0.0624711 0.546824 -0.834913 -0.0624711 0.546824 -0.834913 -0.0624711 
0.509232 -0.769919 0.384589 0.509232 -0.769919 0.384589 0.509232 -0.769919 0.384589 
0.627523 -0.731354 0.267089 0.627523 -0.731354 0.267089 0.627523 -0.731354 0.267089 
-0.763973 -0.150883 0.627359 -0.763973 -0.150883 0.627359 -0.763973 -0.150883 0.627359 
-0.781103 -0.100793 -0.616213 -0.781103 -0.100793 -0.616213 -0.781103 -0.100793 -0.616213 
-0.0564038 -0.232891 -0.970866 -0.0564038 -0.232891 -0.970866 -0.0564038 -0.232891 -0.970866 
-0.142156 -0.230893 -0.962538 -0.142156 -0.230893 -0.962538 -0.142156 -0.230893 -0.962538 
0.0577222 -0.355069 -0.933057 0.0577222 -0.355069 -0.933057 0.0577222 -0.355069 -0.933057 
0.0984311 -0.447593 -0.888804 0.0984311 -0.447593 -0.888804 0.0984311 -0.447593 -0.888804 
0.351884 -0.435367 -0.828633 0.351884 -0.435367 -0.828633 0.351884 -0.435367 -0.828633 
0.129682 -0.586687 0.799363 0.129682 -0.586687 0.799363 0.129682 -0.586687 0.799363 
0.419129 -0.63369 0.650206 0.419129 -0.63369 0.650206 0.419129 -0.63369 0.650206 
0.673809 -0.582201 -0.454999 0.673809 -0.582201 -0.454999 0.673809 -0.582201 -0.454999 
0.649967 -0.757512 -0.0609767 0.649967 -0.757512 -0.0609767 0.649967 -0.757512 -0.0609767 
-0.779824 -0.102953 -0.617474 -0.779824 -0.102953 -0.617474 -0.779824 -0.102953 -0.617474 
-0.698844 -0.0922621 0.709299 -0.698844 -0.0922621 0.709299 -0.698844 -0.0922621 0.709299 
-0.772573 -0.0253458 0.63442 -0.772573 -0.0253458 0.63442 -0.772573 -0.0253458 0.63442 
-0.707041 -0.0115528 -0.707078 -0.707041 -0.0115528 -0.707078 -0.707041 -0.0115528 -0.707078 
-0.253242 -0.0621858 -0.965402 -0.253242 -0.0621858 -0.965402 -0.253242 -0.0621858 -0.965402 
-0.339323 0.00317588 -0.940665 -0.339323 0.00317588 -0.940665 -0.339323 0.00317588 -0.940665 
-0.32266 -0.0470465 -0.945345 -0.32266 -0.0470465 -0.945345 -0.32266 -0.0470465 -0.945345 
-0.347279 -0.143881 0.926658 -0.347279 -0.143881 0.926658 -0.347279 -0.143881 0.926658 
-0.337824 -0.0976597 0.936129 -0.337824 -0.0976597 0.936129 -0.337824 -0.0976597 0.936129 
-0.269562 -0.118652 0.955645 -0.269562 -0.118652 0.955645 -0.269562 -0.118652 0.955645 
-0.113607 -0.232444 0.965952 -0.113607 -0.232444 0.965952 -0.113607 -0.232444 0.965952 
0.0129718 -0.273741 0.961716 0.0129718 -0.273741 0.961716 0.0129718 -0.273741 0.961716 
0.465917 -0.514515 0.719858 0.465917 -0.514515 0.719858 0.465917 -0.514515 0.719858 
0.750973 -0.648874 -0.122482 0.750973 -0.648874 -0.122482 0.750973 -0.648874 -0.122482 
-0.660593 0.0939287 0.744845 -0.660593 0.0939287 0.744845 -0.660593 0.0939287 0.744845 
-0.392908 0.115052 0.912352 -0.392908 0.115052 0.912352 -0.392908 0.115052 0.912352 
-0.347949 0.0527826 0.936026 -0.347949 0.0527826 0.936026 -0.347949 0.0527826 0.936026 
0.114862 -0.204611 -0.972081 0.114862 -0.204611 -0.972081 0.114862 -0.204611 -0.972081 
0.1097 -0.207222 -0.972124 0.1097 -0.207222 -0.972124 0.1097 -0.207222 -0.972124 
-0.215133 -0.032805 0.976034 -0.215133 -0.032805 0.976034 -0.215133 -0.032805 0.976034 
0.359977 -0.389663 -0.847691 0.359977 -0.389663 -0.847691 0.359977 -0.389663 -0.847691 
0.4426 -0.374526 -0.814761 0.4426 -0.374526 -0.814761 0.4426 -0.374526 -0.814761 
0.520101 -0.466897 -0.715193 0.520101 -0.466897 -0.715193 0.520101 -0.466897 -0.715193 
0.104519 -0.186107 0.976954 0.104519 -0.186107 0.976954 0.104519 -0.186107 0.976954 
0.611283 -0.448222 -0.65225 0.611283 -0.448222 -0.65225 0.611283 -0.448222 -0.65225 
0.127968 -0.190223 0.973365 0.127968 -0.190223 0.973365 0.127968 -0.190223 0.973365 
0.692715 -0.507932 -0.512007 0.692715 -0.507932 -0.512007 0.692715 -0.507932 -0.512007 
0.654104 -0.439838 0.615378 0.654104 -0.439838 0.615378 0.654104 -0.439838 0.615378 
0.794959 -0.482191 0.368146 0.794959 -0.482191 0.368146 0.794959 -0.482191 0.368146 
0.738558 -0.44798 0.503831 0.738558 -0.44798 0.503831 0.738558 -0.44798 0.503831 
-0.800594 0.248363 -0.545312 -0.800594 0.248363 -0.545312 -0.800594 0.248363 -0.545312 
-0.404283 0.0844518 0.910727 -0.404283 0.0844518 0.910727 -0.404283 0.0844518 0.910727 
-0.290795 0.11622 0.949701 -0.290795 0.11622 0.949701 -0.290795 0.11622 0.949701 
0.110802 -0.153641 -0.981895 0.110802 -0.153641 -0.981895 0.110802 -0.153641 -0.981895 
0.290102 -0.288707 -0.912408 0.290102 -0.288707 -0.912408 0.290102 -0.288707 -0.912408 
0.444845 -0.370952 -0.815173 0.444845 -0.370952 -0.815173 0.444845 -0.370952 -0.815173 
0.525326 -0.352435 -0.774482 0.525326 -0.352435 -0.774482 0.525326 -0.352435 -0.774482 
0.804771 -0.422532 -0.416906 0.804771 -0.422532 -0.416906 0.804771 -0.422532 -0.416906 
0.885775 -0.441057 -0.144468 0.885775 -0.441057 -0.144468 0.885775 -0.441057 -0.144468 
0.887734 -0.442033 0.128588 0.887734 -0.442033 0.128588 0.887734 -0.442033 0.128588 
-0.761783 0.236323 -0.603189 -0.761783 0.236323 -0.603189 -0.761783 0.236323 -0.603189 
-0.844575 0.380007 0.37721 -0.844575 0.380007 0.37721 -0.844575 0.380007 0.37721 
-0.760782 0.342305 0.551397 -0.760782 0.342305 0.551397 -0.760782 0.342305 0.551397 
-0.538034 0.444581 0.716148 -0.538034 0.444581 0.716148 -0.538034 0.444581 0.716148 
-0.390244 0.273666 0.8791 -0.390244 0.273666 0.8791 -0.390244 0.273666 0.8791 
-0.270087 0.0264154 -0.962473 -0.270087 0.0264154 -0.962473 -0.270087 0.0264154 -0.962473 
-0.410772 0.198012 0.889976 -0.410772 0.198012 0.889976 -0.410772 0.198012 0.889976 
-0.188677 0.00507817 -0.982026 -0.188677 0.00507817 -0.982026 -0.188677 0.00507817 -0.982026 
-0.0958412 -0.136275 -0.986024 -0.0958412 -0.136275 -0.986024 -0.0958412 -0.136275 -0.986024 
-0.271316 0.0951054 0.95778 -0.271316 0.0951054 0.95778 -0.271316 0.0951054 0.95778 
-0.215173 -0.0266389 0.976213 -0.215173 -0.0266389 0.976213 -0.215173 -0.0266389 0.976213 
-0.109504 0.0280137 0.993591 -0.109504 0.0280137 0.993591 -0.109504 0.0280137 0.993591 
0.602175 -0.403993 -0.688604 0.602175 -0.403993 -0.688604 0.602175 -0.403993 -0.688604 
0.207736 -0.161393 0.964779 0.207736 -0.161393 0.964779 0.207736 -0.161393 0.964779 
0.481064 -0.241536 0.842756 0.481064 -0.241536 0.842756 0.481064 -0.241536 0.842756 
0.828251 -0.418387 -0.372764 0.828251 -0.418387 -0.372764 0.828251 -0.418387 -0.372764 
0.886179 -0.447649 -0.119571 0.886179 -0.447649 -0.119571 0.886179 -0.447649 -0.119571 
-0.8763 0.461569 -0.138031 -0.8763 0.461569 -0.138031 -0.8763 0.461569 -0.138031 
-0.870653 0.458594 0.177919 -0.870653 0.458594 0.177919 -0.870653 0.458594 0.177919 
-0.381278 0.152171 -0.91185 -0.381278 0.152171 -0.91185 -0.381278 0.152171 -0.91185 
-0.438848 0.169482 -0.882433 -0.438848 0.169482 -0.882433 -0.438848 0.169482 -0.882433 
-0.428985 0.413586 0.803068 -0.428985 0.413586 0.803068 -0.428985 0.413586 0.803068 
-0.244645 0.123475 0.961719 -0.244645 0.123475 0.961719 -0.244645 0.123475 0.961719 
0.909299 -0.335408 0.246327 0.909299 -0.335408 0.246327 0.909299 -0.335408 0.246327 
0.790216 -0.291482 0.539071 0.790216 -0.291482 0.539071 0.790216 -0.291482 0.539071 
-0.492612 0.532929 0.687983 -0.492612 0.532929 0.687983 -0.492612 0.532929 0.687983 
-0.61677 0.45217 -0.644312 -0.61677 0.45217 -0.644312 -0.61677 0.45217 -0.644312 
-0.584573 0.351803 -0.731101 -0.584573 0.351803 -0.731101 -0.584573 0.351803 -0.731101 
-0.473675 0.525825 0.706499 -0.473675 0.525825 0.706499 -0.473675 0.525825 0.706499 
-0.130823 0.0647737 -0.989288 -0.130823 0.0647737 -0.989288 -0.130823 0.0647737 -0.989288 
0.0107059 -0.027914 -0.999553 0.0107059 -0.027914 -0.999553 0.0107059 -0.027914 -0.999553 
-0.342423 0.240706 0.908189 -0.342423 0.240706 0.908189 -0.342423 0.240706 0.908189 
0.149419 -0.162521 -0.975326 0.149419 -0.162521 -0.975326 0.149419 -0.162521 -0.975326 
0.304469 -0.262786 -0.915556 0.304469 -0.262786 -0.915556 0.304469 -0.262786 -0.915556 
-0.11049 0.0320817 0.993359 -0.11049 0.0320817 0.993359 -0.11049 0.0320817 0.993359 
0.342143 -0.259234 -0.903181 0.342143 -0.259234 -0.903181 0.342143 -0.259234 -0.903181 
0.641045 -0.0689944 0.764396 0.641045 -0.0689944 0.764396 0.641045 -0.0689944 0.764396 
-0.711837 0.612348 -0.343973 -0.711837 0.612348 -0.343973 -0.711837 0.612348 -0.343973 
-0.625434 0.676622 0.388605 -0.625434 0.676622 0.388605 -0.625434 0.676622 0.388605 
-0.700064 0.60222 -0.38372 -0.700064 0.60222 -0.38372 -0.700064 0.60222 -0.38372 
-0.331097 0.288946 -0.898268 -0.331097 0.288946 -0.898268 -0.331097 0.288946 -0.898268 
-0.351702 0.293979 -0.888753 -0.351702 0.293979 -0.888753 -0.351702 0.293979 -0.888753 
-0.147727 0.0680767 -0.986682 -0.147727 0.0680767 -0.986682 -0.147727 0.0680767 -0.986682 
-0.341182 0.254475 0.904896 -0.341182 0.254475 0.904896 -0.341182 0.254475 0.904896 
0.354647 -0.245911 -0.902083 0.354647 -0.245911 -0.902083 0.354647 -0.245911 -0.902083 
0.215673 -0.0387772 0.975696 0.215673 -0.0387772 0.975696 0.215673 -0.0387772 0.975696 
0.210313 -0.0416342 0.976747 0.210313 -0.0416342 0.976747 0.210313 -0.0416342 0.976747 
0.555774 -0.0330137 0.830677 0.555774 -0.0330137 0.830677 0.555774 -0.0330137 0.830677 
0.697367 -0.366141 -0.616133 0.697367 -0.366141 -0.616133 0.697367 -0.366141 -0.616133 
0.644719 -0.0851508 0.759662 0.644719 -0.0851508 0.759662 0.644719 -0.0851508 0.759662 
0.954404 -0.29329 0.0556256 0.954404 -0.29329 0.0556256 0.954404 -0.29329 0.0556256 
0.937054 -0.287958 0.197509 0.937054 -0.287958 0.197509 0.937054 -0.287958 0.197509 
-0.691419 0.721499 0.0371407 -0.691419 0.721499 0.0371407 -0.691419 0.721499 0.0371407 
-0.623199 0.650311 0.434419 -0.623199 0.650311 0.434419 -0.623199 0.650311 0.434419 
-0.527515 0.706424 0.471904 -0.527515 0.706424 0.471904 -0.527515 0.706424 0.471904 
-0.483186 0.497965 0.720112 -0.483186 0.497965 0.720112 -0.483186 0.497965 0.720112 
-0.436824 0.416179 0.797483 -0.436824 0.416179 0.797483 -0.436824 0.416179 0.797483 
-0.318325 0.246621 0.91534 -0.318325 0.246621 0.91534 -0.318325 0.246621 0.91534 
0.32805 -0.216996 -0.9194 0.32805 -0.216996 -0.9194 0.32805 -0.216996 -0.9194 
-0.0136623 0.12931 0.99151 -0.0136623 0.12931 0.99151 -0.0136623 0.12931 0.99151 
-0.089281 0.11006 0.989907 -0.089281 0.11006 0.989907 -0.089281 0.11006 0.989907 
0.710726 -0.386965 -0.587475 0.710726 -0.386965 -0.587475 0.710726 -0.386965 -0.587475 
0.934161 -0.356777 -0.00735765 0.934161 -0.356777 -0.00735765 0.934161 -0.356777 -0.00735765 
0.835419 -0.41084 -0.365084 0.835419 -0.41084 -0.365084 0.835419 -0.41084 -0.365084 
0.917666 -0.350477 0.187232 0.917666 -0.350477 0.187232 0.917666 -0.350477 0.187232 
-0.479416 0.528768 -0.700403 -0.479416 0.528768 -0.700403 -0.479416 0.528768 -0.700403 
-0.597142 0.800599 -0.0496329 -0.597142 0.800599 -0.0496329 -0.597142 0.800599 -0.0496329 
-0.630326 0.695214 -0.345495 -0.630326 0.695214 -0.345495 -0.630326 0.695214 -0.345495 
-0.595832 0.798842 0.0826766 -0.595832 0.798842 0.0826766 -0.595832 0.798842 0.0826766 
-0.593575 0.799369 0.0931544 -0.593575 0.799369 0.0931544 -0.593575 0.799369 0.0931544 
-0.590595 0.566223 -0.574969 -0.590595 0.566223 -0.574969 -0.590595 0.566223 -0.574969 
0.199963 -0.111041 -0.973491 0.199963 -0.111041 -0.973491 0.199963 -0.111041 -0.973491 
0.0332333 0.229931 0.972639 0.0332333 0.229931 0.972639 0.0332333 0.229931 0.972639 
0.212189 0.183032 0.959935 0.212189 0.183032 0.959935 0.212189 0.183032 0.959935 
0.528383 -0.337624 -0.778988 0.528383 -0.337624 -0.778988 0.528383 -0.337624 -0.778988 
0.460006 -0.285077 -0.840908 0.460006 -0.285077 -0.840908 0.460006 -0.285077 -0.840908 
0.903206 -0.174187 0.392274 0.903206 -0.174187 0.392274 0.903206 -0.174187 0.392274 
0.602051 -0.0916744 0.793177 0.602051 -0.0916744 0.793177 0.602051 -0.0916744 0.793177 
-0.526653 0.709245 0.468623 -0.526653 0.709245 0.468623 -0.526653 0.709245 0.468623 
-0.504395 0.496671 0.706331 -0.504395 0.496671 0.706331 -0.504395 0.496671 0.706331 
-0.441644 0.43245 0.78609 -0.441644 0.43245 0.78609 -0.441644 0.43245 0.78609 
-0.142399 0.274118 -0.951095 -0.142399 0.274118 -0.951095 -0.142399 0.274118 -0.951095 
0.0364609 0.0239759 -0.999047 0.0364609 0.0239759 -0.999047 0.0364609 0.0239759 -0.999047 
-0.288551 0.259087 0.921744 -0.288551 0.259087 0.921744 -0.288551 0.259087 0.921744 
0.160959 -0.0602699 -0.985119 0.160959 -0.0602699 -0.985119 0.160959 -0.0602699 -0.985119 
0.0107929 0.259963 0.965558 0.0107929 0.259963 0.965558 0.0107929 0.259963 0.965558 
0.30481 0.178384 0.935559 0.30481 0.178384 0.935559 0.30481 0.178384 0.935559 
0.873246 -0.196418 0.445938 0.873246 -0.196418 0.445938 0.873246 -0.196418 0.445938 
-0.609855 0.672499 0.419311 -0.609855 0.672499 0.419311 -0.609855 0.672499 0.419311 
-0.526056 0.580092 0.6219 -0.526056 0.580092 0.6219 -0.526056 0.580092 0.6219 
-0.0390537 0.174566 -0.983871 -0.0390537 0.174566 -0.983871 -0.0390537 0.174566 -0.983871 
-0.228439 0.363274 0.903243 -0.228439 0.363274 0.903243 -0.228439 0.363274 0.903243 
0.69391 -0.393029 -0.603339 0.69391 -0.393029 -0.603339 0.69391 -0.393029 -0.603339 
0.843458 -0.477732 -0.245665 0.843458 -0.477732 -0.245665 0.843458 -0.477732 -0.245665 
-0.4224 0.635997 -0.645821 -0.4224 0.635997 -0.645821 -0.4224 0.635997 -0.645821 
-0.549402 0.82722 -0.117752 -0.549402 0.82722 -0.117752 -0.549402 0.82722 -0.117752 
-0.611123 0.668266 0.424204 -0.611123 0.668266 0.424204 -0.611123 0.668266 0.424204 
-0.333944 0.419942 -0.843878 -0.333944 0.419942 -0.843878 -0.333944 0.419942 -0.843878 
-0.486654 0.680165 -0.548218 -0.486654 0.680165 -0.548218 -0.486654 0.680165 -0.548218 
-0.108637 0.205845 -0.972536 -0.108637 0.205845 -0.972536 -0.108637 0.205845 -0.972536 
-0.416656 0.469702 0.778318 -0.416656 0.469702 0.778318 -0.416656 0.469702 0.778318 
-0.236703 0.393656 0.888261 -0.236703 0.393656 0.888261 -0.236703 0.393656 0.888261 
-0.340495 0.456062 0.822235 -0.340495 0.456062 0.822235 -0.340495 0.456062 0.822235 
0.186424 -0.142853 -0.972028 0.186424 -0.142853 -0.972028 0.186424 -0.142853 -0.972028 
0.267289 0.101585 0.958247 0.267289 0.101585 0.958247 0.267289 0.101585 0.958247 
0.190847 0.222828 0.955994 0.190847 0.222828 0.955994 0.190847 0.222828 0.955994 
0.604015 -0.0438665 0.795765 0.604015 -0.0438665 0.795765 0.604015 -0.0438665 0.795765 