# vtk DataFile Version 4.2
3D Slicer output. SPACE=LPS
ASCII
DATASET POLYDATA
POINTS 2580 double
5.924973011 -4.4619479179 0.16086101532 5.924973011 -4.3580002785 1.8433265686 5.0942435265 -4.414855957 1.0020933151 
5.924973011 -4.3580002785 1.8433265686 5.924973011 -4.4619479179 0.16086101532 8.4171638489 -4.4076786041 1.0020933151 
2.6020526886 -3.791264534 0.16086101532 5.0942435265 -4.414855957 1.0020933151 3.4038133621 -3.8265953064 1.0020933151 
5.924973011 -3.9239635468 -0.68037223816 5.924973011 -4.4619479179 0.16086101532 2.6020526886 -3.791264534 0.16086101532 
5.924973011 -4.4619479179 0.16086101532 5.0942435265 -4.414855957 1.0020933151 2.6020526886 -3.791264534 0.16086101532 
3.4038133621 -3.8265953064 1.0020933151 5.0942435265 -4.414855957 1.0020933151 5.924973011 -4.3580002785 1.8433265686 
5.924973011 -4.3580002785 1.8433265686 6.7557034492 -3.0120925903 3.467414856 3.4038133621 -3.8265953064 1.0020933151 
5.924973011 -4.4619479179 0.16086101532 5.924973011 -3.9239635468 -0.68037223816 8.4171638489 -3.9655275345 0.16086101532 
5.924973011 -4.4619479179 0.16086101532 8.4171638489 -3.9655275345 0.16086101532 8.4171638489 -4.4076786041 1.0020933151 
8.4171638489 -4.4076786041 1.0020933151 8.4171638489 -4.4935269356 1.8433265686 5.924973011 -4.3580002785 1.8433265686 
8.4171638489 -4.4935269356 1.8433265686 7.5864338875 -4.2574887276 2.6845588684 5.924973011 -4.3580002785 1.8433265686 
6.7557034492 -3.0120925903 3.467414856 5.924973011 -4.3580002785 1.8433265686 7.5864338875 -4.2574887276 2.6845588684 
8.4171638489 -4.4076786041 1.0020933151 10.078624725 -3.7873363495 1.8433265686 8.4171638489 -4.4935269356 1.8433265686 
7.5864338875 -4.2574887276 2.6845588684 8.4171638489 -4.4935269356 1.8433265686 10.909353256 -2.4081511497 4.3670253754 
8.4171638489 -4.4935269356 1.8433265686 10.078624725 -3.7873363495 1.8433265686 10.909353256 -2.4081511497 4.3670253754 
1.7713227272 -3.121571064 -0.68037223816 2.6020526886 -3.791264534 0.16086101532 1.7713227272 -3.2129359245 0.16086101532 
2.099234581 -3.0120925903 1.0020933151 1.7713227272 -3.2129359245 0.16086101532 2.6020526886 -3.791264534 0.16086101532 
1.7713227272 -3.121571064 -0.68037223816 5.0942435265 -3.0120925903 -1.4825582504 5.924973011 -3.9239635468 -0.68037223816 
2.6020526886 -3.791264534 0.16086101532 1.7713227272 -3.121571064 -0.68037223816 5.924973011 -3.9239635468 -0.68037223816 
2.099234581 -3.0120925903 1.0020933151 2.6020526886 -3.791264534 0.16086101532 3.4038133621 -3.8265953064 1.0020933151 
6.7557034492 -3.0120925903 3.467414856 2.099234581 -3.0120925903 1.0020933151 3.4038133621 -3.8265953064 1.0020933151 
5.0942435265 -1.3830862045 3.2757434845 2.099234581 -3.0120925903 1.0020933151 6.7557034492 -3.0120925903 3.467414856 
5.924973011 -3.9239635468 -0.68037223816 5.0942435265 -3.0120925903 -1.4825582504 8.4171638489 -3.1466321945 -0.68037223816 
7.5864338875 -4.2574887276 2.6845588684 8.4171638489 -2.1975893974 4.3501501083 6.7557034492 -3.0120925903 3.467414856 
8.4171638489 -3.9655275345 0.16086101532 5.924973011 -3.9239635468 -0.68037223816 8.4171638489 -3.1466321945 -0.68037223816 
8.4171638489 -3.1466321945 -0.68037223816 11.740083694 -1.4959449768 0.16086101532 8.4171638489 -3.9655275345 0.16086101532 
8.4171638489 -2.1975893974 4.3501501083 7.5864338875 -4.2574887276 2.6845588684 10.909353256 -2.4081511497 4.3670253754 
8.4171638489 -3.9655275345 0.16086101532 11.740083694 -1.4959449768 0.16086101532 10.806682587 -3.0120925903 1.0020933151 
8.4171638489 -3.9655275345 0.16086101532 10.806682587 -3.0120925903 1.0020933151 8.4171638489 -4.4076786041 1.0020933151 
10.806682587 -3.0120925903 1.0020933151 10.078624725 -3.7873363495 1.8433265686 8.4171638489 -4.4076786041 1.0020933151 
5.0942435265 -3.0120925903 -1.4825582504 1.7713227272 -3.121571064 -0.68037223816 3.43278265 -1.3830862045 -2.126522541 
8.4171638489 -3.1466321945 -0.68037223816 5.0942435265 -3.0120925903 -1.4825582504 5.924973011 -1.3830862045 -2.2282533646 
5.0942435265 -1.3830862045 3.2757434845 6.7557034492 -3.0120925903 3.467414856 8.4171638489 -2.1975893974 4.3501501083 
8.4171638489 -2.1975893974 4.3501501083 10.909353256 -2.4081511497 4.3670253754 10.078624725 -1.3830862045 4.9813280106 
8.4171638489 -3.1466321945 -0.68037223816 10.078624725 -1.3830862045 -1.0859136581 11.740083694 -1.4959449768 0.16086101532 
12.570814133 -1.8536882401 4.3670253754 10.909353256 -2.4081511497 4.3670253754 10.078624725 -3.7873363495 1.8433265686 
10.806682587 -3.0120925903 1.0020933151 13.401544571 -1.6691408157 3.5257921219 10.078624725 -3.7873363495 1.8433265686 
10.078624725 -3.7873363495 1.8433265686 13.401544571 -1.6691408157 3.5257921219 12.570814133 -1.8536882401 4.3670253754 
1.7713227272 -3.121571064 -0.68037223816 0.26700973511 -0.56858348846 0.16086101532 1.4756450653 -1.3830862045 -1.521604538 
1.7713227272 -3.2129359245 0.16086101532 0.26700973511 -0.56858348846 0.16086101532 1.7713227272 -3.121571064 -0.68037223816 
1.7713227272 -3.2129359245 0.16086101532 2.099234581 -3.0120925903 1.0020933151 0.26700973511 -0.56858348846 0.16086101532 
2.099234581 -3.0120925903 1.0020933151 1.7713227272 -0.56858348846 1.7910900116 0.26700973511 -0.56858348846 0.16086101532 
3.43278265 -1.3830862045 -2.126522541 1.7713227272 -3.121571064 -0.68037223816 1.4756450653 -1.3830862045 -1.521604538 
5.0942435265 -1.3830862045 3.2757434845 1.7713227272 -0.56858348846 1.7910900116 2.099234581 -3.0120925903 1.0020933151 
5.924973011 -1.3830862045 -2.2282533646 5.0942435265 -3.0120925903 -1.4825582504 3.43278265 -1.3830862045 -2.126522541 
9.2478942871 0.2459192276 -2.2034668922 8.4171638489 -3.1466321945 -0.68037223816 5.924973011 -1.3830862045 -2.2282533646 
9.2478942871 0.2459192276 -2.2034668922 10.078624725 -1.3830862045 -1.0859136581 8.4171638489 -3.1466321945 -0.68037223816 
10.909353256 -2.4081511497 4.3670253754 12.570814133 -1.8536882401 4.3670253754 13.401544571 -0.73631620407 5.2082576752 
15.100257874 0.2459192276 2.6845588684 10.806682587 -3.0120925903 1.0020933151 11.740083694 -1.4959449768 0.16086101532 
10.806682587 -3.0120925903 1.0020933151 15.100257874 0.2459192276 2.6845588684 13.401544571 -1.6691408157 3.5257921219 
12.570814133 -1.8536882401 4.3670253754 13.401544571 -1.6691408157 3.5257921219 13.401544571 -0.73631620407 5.2082576752 
3.43278265 -1.3830862045 -2.126522541 1.4756450653 -1.3830862045 -1.521604538 2.6020526886 -0.56858348846 -2.1584219933 
2.6020526886 -0.56858348846 -2.1584219933 1.4756450653 -1.3830862045 -1.521604538 1.7713227272 0.2459192276 -1.9537162781 
3.43278265 -1.3830862045 -2.126522541 2.6020526886 -0.56858348846 -2.1584219933 5.0942435265 1.0604228973 -2.7410707474 
5.924973011 -1.3830862045 -2.2282533646 3.43278265 -1.3830862045 -2.126522541 5.0942435265 1.0604228973 -2.7410707474 
8.4171638489 -2.1975893974 4.3501501083 7.5864338875 0.2459192276 4.6219244003 5.0942435265 -1.3830862045 3.2757434845 
10.078624725 -1.3830862045 4.9813280106 7.5864338875 0.2459192276 4.6219244003 8.4171638489 -2.1975893974 4.3501501083 
10.078624725 -1.3830862045 4.9813280106 10.909353256 -2.4081511497 4.3670253754 11.740083694 0.2459192276 5.8244476318 
10.078624725 -1.3830862045 -1.0859136581 14.11948967 0.2459192276 1.0020933151 11.740083694 -1.4959449768 0.16086101532 
10.909353256 -2.4081511497 4.3670253754 13.401544571 -0.73631620407 5.2082576752 11.740083694 0.2459192276 5.8244476318 
11.740083694 -1.4959449768 0.16086101532 14.11948967 0.2459192276 1.0020933151 15.100257874 0.2459192276 2.6845588684 
14.232275009 -0.76170110703 4.3670253754 13.401544571 -0.73631620407 5.2082576752 13.401544571 -1.6691408157 3.5257921219 
14.232275009 -0.76170110703 4.3670253754 13.401544571 -1.6691408157 3.5257921219 15.100257874 0.2459192276 2.6845588684 
1.3228287697 1.0604228973 -1.521604538 1.4756450653 -1.3830862045 -1.521604538 0.26700973511 -0.56858348846 0.16086101532 
0.11289358139 0.2459192276 0.16086101532 1.3228287697 1.0604228973 -1.521604538 0.26700973511 -0.56858348846 0.16086101532 
1.3228287697 1.0604228973 -1.521604538 1.7713227272 0.2459192276 -1.9537162781 1.4756450653 -1.3830862045 -1.521604538 
0.11289358139 0.2459192276 0.16086101532 1.7713227272 -0.56858348846 1.7910900116 1.7713227272 1.0604228973 1.8159313202 
0.11289358139 0.2459192276 0.16086101532 0.26700973511 -0.56858348846 0.16086101532 1.7713227272 -0.56858348846 1.7910900116 
7.5864338875 1.8749256134 -2.9442372322 5.924973011 -1.3830862045 -2.2282533646 5.0942435265 1.0604228973 -2.7410707474 
7.5864338875 0.2459192276 4.6219244003 1.7713227272 -0.56858348846 1.7910900116 5.0942435265 -1.3830862045 3.2757434845 
9.2478942871 0.2459192276 -2.2034668922 5.924973011 -1.3830862045 -2.2282533646 7.5864338875 1.8749256134 -2.9442372322 
9.2478942871 0.2459192276 -2.2034668922 13.401544571 4.3184347153 -1.9923272133 10.078624725 -1.3830862045 -1.0859136581 
13.401544571 -0.73631620407 5.2082576752 14.232275009 1.0604228973 5.8181724548 11.740083694 0.2459192276 5.8244476318 
14.232275009 -0.76170110703 4.3670253754 15.06300354 0.83830547333 5.2082576752 13.401544571 -0.73631620407 5.2082576752 
13.401544571 -0.73631620407 5.2082576752 15.06300354 0.83830547333 5.2082576752 14.232275009 1.0604228973 5.8181724548 
15.702526093 1.0604228973 4.3670253754 14.232275009 -0.76170110703 4.3670253754 15.100257874 0.2459192276 2.6845588684 
2.6020526886 -0.56858348846 -2.1584219933 1.7713227272 0.2459192276 -1.9537162781 5.924973011 3.5039319992 -2.9977817535 
1.7713227272 -0.56858348846 1.7910900116 6.7557034492 1.8749256134 4.165063858 1.7713227272 1.0604228973 1.8159313202 
7.5864338875 0.2459192276 4.6219244003 6.7557034492 1.8749256134 4.165063858 1.7713227272 -0.56858348846 1.7910900116 
10.078624725 2.6894283295 5.5273399353 7.5864338875 0.2459192276 4.6219244003 10.078624725 -1.3830862045 4.9813280106 
11.740083694 0.2459192276 5.8244476318 10.078624725 2.6894283295 5.5273399353 10.078624725 -1.3830862045 4.9813280106 
[...]
CELL_DATA 860
FIELD FieldData 1
GroupIds 1 860 float
0 0 0 0 0 0 0 0 0 
0 0 0 0 0 0 0 0 0 
0 0 0 0 0 0 0 0 0 
0 0 0 0 0 0 0 0 0 
0 0 0 0 0 0 0 0 0 
0 0 0 0 0 0 0 0 0 
0 0 0 0 0 0 0 0 0 
0 0 0 0 0 0 0 0 0 
0 0 0 0 0 0 0 0 0 
0 0 0 0 0 0 0 0 0 
0 0 0 0 0 0 0 0 0 
0 0 0 0 0 0 0 0 0 
0 0 0 0 0 0 0 0 0 
0 0 0 0 0 0 0 0 0 
0 0 0 0 0 0 0 0 0 
0 0 0 0 0 0 0 0 0 
0 0 0 0 0 0 0 0 0 
0 0 0 0 0 0 0 0 0 
0 0 0 0 0 0 0 0 0 
0 0 0 0 0 0 0 0 0 
0 0 0 0 0 0 0 0 0 
0 0 0 0 0 0 0 0 0 
0 0 0 0 0 0 0 0 0 
0 0 0 0 0 0 0 0 0 
0 0 0 0 0 0 0 0 0 
0 0 0 0 0 0 0 0 0 
0 0 0 0 0 0 0 0 0 
0 0 0 0 0 0 0 0 0 
0 0 0 0 0 0 0 0 0 
0 0 0 0 0 0 0 0 0 
0 0 0 0 0 0 0 0 0 
0 0 0 0 0 0 0 0 0 
0 0 0 0 0 0 0 0 0 
0 0 0 0 0 0 0 0 0 
0 0 0 0 0 0 0 0 0 
0 0 0 0 0 0 0 0 0 
0 0 0 0 0 0 0 0 0 
0 0 0 0 0 0 0 0 0 
0 0 0 0 0 0 0 0 0 
0 0 0 0 0 0 0 0 0 
0 0 0 0 0 0 0 0 0 
0 0 0 0 0 0 0 0 0 
0 0 0 0 0 0 0 0 0 
0 0 0 0 0 0 0 0 0 
0 0 0 0 0 0 0 0 0 
0 0 0 0 0 0 0 0 0 
0 0 0 0 0 0 0 0 0 
0 0 0 0 0 0 0 0 0 
0 0 0 0 0 0 0 0 0 
0 0 0 0 0 0 0 0 0 
0 0 0 0 0 0 0 0 0 
0 0 0 0 0 0 0 0 0 
0 0 0 0 0 0 0 0 0 
0 0 0 0 0 0 0 0 0 
0 0 0 0 0 0 0 0 0 
0 0 0 0 0 0 0 0 0 
0 0 0 0 0 0 0 0 0 
0 0 0 0 0 0 0 0 0 
0 0 0 0 0 0 0 0 0 
0 0 0 0 0 0 0 0 0 
0 0 0 0 0 0 0 0 0 
0 0 0 0 0 0 0 0 0 
0 0 0 0 0 0 0 0 0 
0 0 0 0 0 0 0 0 0 
0 0 0 0 0 0 0 0 0 
0 0 0 0 0 0 0 0 0 
0 0 0 0 0 0 0 0 0 
0 0 0 0 0 0 0 0 0 
0 0 0 0 0 0 0 0 0 
0 0 0 0 0 0 0 0 0 
0 0 0 0 0 0 0 0 0 
0 0 0 0 0 0 0 0 0 
0 0 0 0 0 0 0 0 0 
0 0 0 0 0 0 0 0 0 
0 0 0 0 0 0 0 0 0 
0 0 0 0 0 0 0 0 0 
0 0 0 0 0 0 0 0 0 
0 0 0 0 0 0 0 0 0 
0 0 0 0 0 0 0 0 0 
0 0 0 0 0 0 0 0 0 
0 0 0 0 0 0 0 0 0 
0 0 0 0 0 0 0 0 0 
0 0 0 0 0 0 0 0 0 
0 0 0 0 0 0 0 0 0 
0 0 0 0 0 0 0 0 0 
0 0 0 0 0 0 0 0 0 
0 0 0 0 0 0 0 0 0 
0 0 0 0 0 0 0 0 0 
0 0 0 0 0 0 0 0 0 
0 0 0 0 0 0 0 0 0 
0 0 0 0 0 0 0 0 0 
0 0 0 0 0 0 0 0 0 
0 0 0 0 0 0 0 0 0 
0 0 0 0 0 0 0 0 0 
0 0 0 0 0 0 0 0 0 
0 0 0 0 0 
POINT_DATA 2580
NORMALS Normals float
0.00586527 -0.99808 0.0616643 0.00586527 -0.99808 0.0616643 0.00586527 -0.99808 0.0616643 
0.000919333 -0.998097 0.0616653 0.000919333 -0.998097 0.0616653 0.000919333 -0.998097 0.0616653 
-0.317014 -0.910972 0.263879 -0.317014 -0.910972 0.263879 -0.317014 -0.910972 0.263879 
-0.167631 -0.830535 -0.531142 -0.167631 -0.830535 -0.531142 -0.167631 -0.830535 -0.531142 
-0.195921 -0.970699 -0.139136 -0.195921 -0.970699 -0.139136 -0.195921 -0.970699 -0.139136 
-0.306367 -0.880378 0.362043 -0.306367 -0.880378 0.362043 -0.306367 -0.880378 0.362043 
-0.362974 -0.617744 0.697598 -0.362974 -0.617744 0.697598 -0.362974 -0.617744 0.697598 
0.165495 -0.830838 -0.531337 0.165495 -0.830838 -0.531337 0.165495 -0.830838 -0.531337 
0.173641 -0.871733 -0.458182 0.173641 -0.871733 -0.458182 0.173641 -0.871733 -0.458182 
-0.0540206 -0.993381 -0.101375 -0.0540206 -0.993381 -0.101375 -0.0540206 -0.993381 -0.101375 
-0.0529583 -0.973846 0.220951 -0.0529583 -0.973846 0.220951 -0.0529583 -0.973846 0.220951 
-0.31321 -0.646319 0.695824 -0.31321 -0.646319 0.695824 -0.31321 -0.646319 0.695824 
0.389459 -0.916285 -0.0935074 0.389459 -0.916285 -0.0935074 0.389459 -0.916285 -0.0935074 
0.234989 -0.850438 0.470676 0.234989 -0.850438 0.470676 0.234989 -0.850438 0.470676 
0.366365 -0.861951 0.350454 0.366365 -0.861951 0.350454 0.366365 -0.861951 0.350454 
-0.569094 -0.817465 -0.0887835 -0.569094 -0.817465 -0.0887835 -0.569094 -0.817465 -0.0887835 
-0.527028 -0.757039 0.386177 -0.527028 -0.757039 0.386177 -0.527028 -0.757039 0.386177 
-0.139607 -0.722688 -0.676928 -0.139607 -0.722688 -0.676928 -0.139607 -0.722688 -0.676928 
-0.163048 -0.844031 -0.510908 -0.163048 -0.844031 -0.510908 -0.163048 -0.844031 -0.510908 
-0.47946 -0.767945 0.42471 -0.47946 -0.767945 0.42471 -0.47946 -0.767945 0.42471 
-0.374426 -0.599714 0.707212 -0.374426 -0.599714 0.707212 -0.374426 -0.599714 0.707212 
-0.438368 -0.349679 0.827984 -0.438368 -0.349679 0.827984 -0.438368 -0.349679 0.827984 
0.1736 -0.556577 -0.812456 0.1736 -0.556577 -0.812456 0.1736 -0.556577 -0.812456 
-0.133902 -0.58988 0.796312 -0.133902 -0.58988 0.796312 -0.133902 -0.58988 0.796312 
0.218118 -0.699304 -0.680734 0.218118 -0.699304 -0.680734 0.218118 -0.699304 -0.680734 
0.470045 -0.632463 -0.615669 0.470045 -0.632463 -0.615669 0.470045 -0.632463 -0.615669 
-0.0571813 -0.61368 0.787481 -0.0571813 -0.61368 0.787481 -0.0571813 -0.61368 0.787481 
0.469272 -0.631424 -0.617324 0.469272 -0.631424 -0.617324 0.469272 -0.631424 -0.617324 
0.459243 -0.786314 -0.413286 0.459243 -0.786314 -0.413286 0.459243 -0.786314 -0.413286 
0.474624 -0.812649 -0.338132 0.474624 -0.812649 -0.338132 0.474624 -0.812649 -0.338132 
-0.184515 -0.518299 -0.835057 -0.184515 -0.518299 -0.835057 -0.184515 -0.518299 -0.835057 
0.186456 -0.485951 -0.853865 0.186456 -0.485951 -0.853865 0.186456 -0.485951 -0.853865 
-0.353447 -0.254576 0.900148 -0.353447 -0.254576 0.900148 -0.353447 -0.254576 0.900148 
-0.051617 -0.543804 0.837624 -0.051617 -0.543804 0.837624 -0.051617 -0.543804 0.837624 
0.460157 -0.586747 -0.666321 0.460157 -0.586747 -0.666321 0.460157 -0.586747 -0.666321 
0.292464 -0.876375 0.382663 0.292464 -0.876375 0.382663 0.292464 -0.876375 0.382663 
0.596641 -0.777218 -0.199879 0.596641 -0.777218 -0.199879 0.596641 -0.777218 -0.199879 
0.43372 -0.869148 0.237633 0.43372 -0.869148 0.237633 0.43372 -0.869148 0.237633 
-0.832906 -0.349349 -0.429212 -0.832906 -0.349349 -0.429212 -0.832906 -0.349349 -0.429212 
-0.867946 -0.493755 -0.0536258 -0.867946 -0.493755 -0.0536258 -0.867946 -0.493755 -0.0536258 
-0.790595 -0.449752 0.415551 -0.790595 -0.449752 0.415551 -0.790595 -0.449752 0.415551 
-0.700441 -0.302697 0.646341 -0.700441 -0.302697 0.646341 -0.700441 -0.302697 0.646341 
-0.262793 -0.456114 -0.850235 -0.262793 -0.456114 -0.850235 -0.262793 -0.456114 -0.850235 
-0.451241 -0.328477 0.82975 -0.451241 -0.328477 0.82975 -0.451241 -0.328477 0.82975 
-0.0373789 -0.400111 -0.915704 -0.0373789 -0.400111 -0.915704 -0.0373789 -0.400111 -0.915704 
0.224288 -0.444316 -0.86734 0.224288 -0.444316 -0.86734 0.224288 -0.444316 -0.86734 
0.267836 -0.448427 -0.852747 0.267836 -0.448427 -0.852747 0.267836 -0.448427 -0.852747 
0.229809 -0.688628 0.687735 0.229809 -0.688628 0.687735 0.229809 -0.688628 0.687735 
0.647009 -0.633645 -0.424116 0.647009 -0.633645 -0.424116 0.647009 -0.633645 -0.424116 
0.648127 -0.703253 -0.292177 0.648127 -0.703253 -0.292177 0.648127 -0.703253 -0.292177 
0.565304 -0.721419 0.399983 0.565304 -0.721419 0.399983 0.565304 -0.721419 0.399983 
-0.2797 -0.320714 -0.904936 -0.2797 -0.320714 -0.904936 -0.2797 -0.320714 -0.904936 
-0.389294 -0.169503 -0.905383 -0.389294 -0.169503 -0.905383 -0.389294 -0.169503 -0.905383 
-0.122292 -0.16307 -0.979006 -0.122292 -0.16307 -0.979006 -0.122292 -0.16307 -0.979006 
-0.0398033 -0.218175 -0.975098 -0.0398033 -0.218175 -0.975098 -0.0398033 -0.218175 -0.975098 
-0.348493 -0.219822 0.91117 -0.348493 -0.219822 0.91117 -0.348493 -0.219822 0.91117 
-0.263496 -0.194667 0.944814 -0.263496 -0.194667 0.944814 -0.263496 -0.194667 0.944814 
0.0388717 -0.490288 0.870693 0.0388717 -0.490288 0.870693 0.0388717 -0.490288 0.870693 
0.540276 -0.373963 -0.753826 0.540276 -0.373963 -0.753826 0.540276 -0.373963 -0.753826 
0.0340022 -0.489209 0.871503 0.0340022 -0.489209 0.871503 0.0340022 -0.489209 0.871503 
0.630452 -0.683714 -0.367512 0.630452 -0.683714 -0.367512 0.630452 -0.683714 -0.367512 
0.421123 -0.793239 0.439803 0.421123 -0.793239 0.439803 0.421123 -0.793239 0.439803 
0.744621 -0.667308 -0.015498 0.744621 -0.667308 -0.015498 0.744621 -0.667308 -0.015498 
-0.822722 -0.0514528 -0.566111 -0.822722 -0.0514528 -0.566111 -0.822722 -0.0514528 -0.566111 
-0.768524 -0.145416 -0.623077 -0.768524 -0.145416 -0.623077 -0.768524 -0.145416 -0.623077 
-0.735142 -0.0459756 -0.676352 -0.735142 -0.0459756 -0.676352 -0.735142 -0.0459756 -0.676352 
-0.703677 -0.0108337 0.710437 -0.703677 -0.0108337 0.710437 -0.703677 -0.0108337 0.710437 
-0.727915 -0.137732 0.671692 -0.727915 -0.137732 0.671692 -0.727915 -0.137732 0.671692 
-0.0113802 -0.209086 -0.977831 -0.0113802 -0.209086 -0.977831 -0.0113802 -0.209086 -0.977831 
-0.425159 -0.0935252 0.900274 -0.425159 -0.0935252 0.900274 -0.425159 -0.0935252 0.900274 
0.145622 -0.28262 -0.948114 0.145622 -0.28262 -0.948114 0.145622 -0.28262 -0.948114 
0.403853 -0.368487 -0.837329 0.403853 -0.368487 -0.837329 0.403853 -0.368487 -0.837329 
0.1231 -0.369561 0.921016 0.1231 -0.369561 0.921016 0.1231 -0.369561 0.921016 
0.56322 -0.59428 0.574121 0.56322 -0.59428 0.574121 0.56322 -0.59428 0.574121 
0.440102 -0.464372 0.76855 0.440102 -0.464372 0.76855 0.440102 -0.464372 0.76855 
0.777996 -0.627756 0.0254076 0.777996 -0.627756 0.0254076 0.777996 -0.627756 0.0254076 
-0.241771 -0.00271842 -0.97033 -0.241771 -0.00271842 -0.97033 -0.241771 -0.00271842 -0.97033 
-0.424436 -0.013806 0.905353 -0.424436 -0.013806 0.905353 -0.424436 -0.013806 0.905353 
-0.44059 0.0269677 0.897303 -0.44059 0.0269677 0.897303 -0.44059 0.0269677 0.897303 
-0.223955 -0.129508 0.965957 -0.223955 -0.129508 0.965957 -0.223955 -0.129508 0.965957 
-0.349208 -0.124518 0.928735 -0.349208 -0.124518 0.928735 -0.349208 -0.124518 0.928735 
0.48159 -0.404293 -0.777572 0.48159 -0.404293 -0.777572 0.48159 -0.404293 -0.777572 
0.547478 -0.474937 -0.688987 0.547478 -0.474937 -0.688987 0.547478 -0.474937 -0.688987 
0.716029 -0.577756 0.391791 0.716029 -0.577756 0.391791 0.716029 -0.577756 0.391791 
-0.567021 0.120101 -0.814901 -0.567021 0.120101 -0.814901 -0.567021 0.120101 -0.814901 
-0.754538 0.274995 -0.595862 -0.754538 0.274995 -0.595862 -0.754538 0.274995 -0.595862 
-0.839344 0.220255 -0.496981 -0.839344 0.220255 -0.496981 -0.839344 0.220255 -0.496981 
-0.739944 0.204364 0.640873 -0.739944 0.204364 0.640873 -0.739944 0.204364 0.640873 
-0.336453 0.137306 -0.931636 -0.336453 0.137306 -0.931636 -0.336453 0.137306 -0.931636 
-0.347535 0.146266 -0.926189 -0.347535 0.146266 -0.926189 -0.347535 0.146266 -0.926189 
-0.445982 0.332385 0.831036 -0.445982 0.332385 0.831036 -0.445982 0.332385 0.831036 
-0.390878 0.0582903 0.918595 -0.390878 0.0582903 0.918595 -0.390878 0.0582903 0.918595 
0.809514 -0.349288 -0.471894 0.809514 -0.349288 -0.471894 0.809514 -0.349288 -0.471894 
0.807603 -0.589716 -0.00360643 0.807603 -0.589716 -0.00360643 0.807603 -0.589716 -0.00360643 
0.871393 -0.462082 0.164787 0.871393 -0.462082 0.164787 0.871393 -0.462082 0.164787 
0.774786 -0.410853 0.480528 0.774786 -0.410853 0.480528 0.774786 -0.410853 0.480528 
-0.637398 0.416299 -0.648397 -0.637398 0.416299 -0.648397 -0.637398 0.416299 -0.648397 
-0.909505 0.414825 -0.0268388 -0.909505 0.414825 -0.0268388 -0.909505 0.414825 -0.0268388 
-0.834069 0.380419 0.399511 -0.834069 0.380419 0.399511 -0.834069 0.380419 0.399511 
-0.338564 0.285869 0.896467 -0.338564 0.285869 0.896467 -0.338564 0.285869 0.896467 
-0.20756 -0.0321498 -0.977694 -0.20756 -0.0321498 -0.977694 -0.20756 -0.0321498 -0.977694 
-0.0252734 -0.16846 -0.985384 -0.0252734 -0.16846 -0.985384 -0.0252734 -0.16846 -0.985384 
-0.166084 0.00697018 0.986087 -0.166084 0.00697018 0.986087 -0.166084 0.00697018 0.986087 
-0.231802 0.00687583 0.972739 -0.231802 0.00687583 0.972739 -0.231802 0.00687583 0.972739 
0.0668565 -0.19703 0.978115 0.0668565 -0.19703 0.978115 0.0668565 -0.19703 0.978115 
0.17678 -0.140056 0.974235 0.17678 -0.140056 0.974235 0.17678 -0.140056 0.974235 
0.703485 -0.450308 -0.549847 0.703485 -0.450308 -0.549847 0.703485 -0.450308 -0.549847 
0.76736 -0.57045 -0.292824 0.76736 -0.57045 -0.292824 0.76736 -0.57045 -0.292824 
0.572535 -0.0948861 0.814371 0.572535 -0.0948861 0.814371 0.572535 -0.0948861 0.814371 
-0.823363 0.537756 -0.181362 -0.823363 0.537756 -0.181362 -0.823363 0.537756 -0.181362 
-0.541509 0.734805 -0.408448 -0.541509 0.734805 -0.408448 -0.541509 0.734805 -0.408448 
-0.557852 0.448394 -0.698387 -0.557852 0.448394 -0.698387 -0.557852 0.448394 -0.698387 
-0.476027 0.397908 -0.784262 -0.476027 0.397908 -0.784262 -0.476027 0.397908 -0.784262 
-0.133939 -0.0583952 -0.989268 -0.133939 -0.0583952 -0.989268 -0.133939 -0.0583952 -0.989268 
0.0539192 -0.0890196 -0.994569 0.0539192 -0.0890196 -0.994569 0.0539192 -0.0890196 -0.994569 
0.196359 -0.232858 -0.952481 0.196359 -0.232858 -0.952481 0.196359 -0.232858 -0.952481 
0.479338 -0.408817 -0.776598 0.479338 -0.408817 -0.776598 0.479338 -0.408817 -0.776598 
0.573096 -0.396525 0.717168 0.573096 -0.396525 0.717168 0.573096 -0.396525 0.717168 
0.639061 -0.276179 0.717862 0.639061 -0.276179 0.717862 0.639061 -0.276179 0.717862 
0.889279 -0.439898 -0.125191 0.889279 -0.439898 -0.125191 0.889279 -0.439898 -0.125191 
0.887844 -0.439188 0.137285 0.887844 -0.439188 0.137285 0.887844 -0.439188 0.137285 
0.864517 -0.28175 0.416206 0.864517 -0.28175 0.416206 0.864517 -0.28175 0.416206 
-0.587486 0.797194 -0.139076 -0.587486 0.797194 -0.139076 -0.587486 0.797194 -0.139076 
-0.547772 0.834039 -0.0657637 -0.547772 0.834039 -0.0657637 -0.547772 0.834039 -0.0657637 
-0.453344 0.690263 0.563929 -0.453344 0.690263 0.563929 -0.453344 0.690263 0.563929 
-0.259977 0.677159 0.68838 -0.259977 0.677159 0.68838 -0.259977 0.677159 0.68838 
-0.579446 0.255481 -0.773933 -0.579446 0.255481 -0.773933 -0.579446 0.255481 -0.773933 
-0.349637 0.122012 -0.928906 -0.349637 0.122012 -0.928906 -0.349637 0.122012 -0.928906 
-0.458839 0.292154 0.839114 -0.458839 0.292154 0.839114 -0.458839 0.292154 0.839114 
-0.407372 0.243624 0.880168 -0.407372 0.243624 0.880168 -0.407372 0.243624 0.880168 
-0.423026 0.290056 0.858439 -0.423026 0.290056 0.858439 -0.423026 0.290056 0.858439 
-0.172966 0.069321 0.982485 -0.172966 0.069321 0.982485 -0.172966 0.069321 0.982485 
-0.0851097 0.0701265 0.993901 -0.0851097 0.0701265 0.993901 -0.0851097 0.0701265 0.993901 
0.205697 0.0410302 0.977755 0.205697 0.0410302 0.977755 0.205697 0.0410302 0.977755 
0.129203 -0.039247 0.990841 0.129203 -0.039247 0.990841 0.129203 -0.039247 0.990841 
-0.71541 0.696543 -0.0549221 -0.71541 0.696543 -0.0549221 -0.71541 0.696543 -0.0549221 
-0.751875 0.64866 0.118003 -0.751875 0.64866 0.118003 -0.751875 0.64866 0.118003 
-0.616913 0.552449 -0.560552 -0.616913 0.552449 -0.560552 -0.616913 0.552449 -0.560552 
-0.63906 0.551332 -0.536317 -0.63906 0.551332 -0.536317 -0.63906 0.551332 -0.536317 
-0.590801 0.57522 0.565753 -0.590801 0.57522 0.565753 -0.590801 0.57522 0.565753 
-0.592506 0.564921 0.574282 -0.592506 0.564921 0.574282 -0.592506 0.564921 0.574282 
-0.499546 0.451974 0.739036 -0.499546 0.451974 0.739036 -0.499546 0.451974 0.739036 
-0.0922537 -0.0153778 -0.995617 -0.0922537 -0.0153778 -0.995617 -0.0922537 -0.0153778 -0.995617 
0.054458 -0.0901213 -0.994441 0.054458 -0.0901213 -0.994441 0.054458 -0.0901213 -0.994441 
0.288362 -0.246132 -0.925347 0.288362 -0.246132 -0.925347 0.288362 -0.246132 -0.925347 
0.513802 -0.135587 0.847127 0.513802 -0.135587 0.847127 0.513802 -0.135587 0.847127 
-0.125925 0.246453 -0.960939 -0.125925 0.246453 -0.960939 -0.125925 0.246453 -0.960939 
-0.418744 0.225601 -0.879635 -0.418744 0.225601 -0.879635 -0.418744 0.225601 -0.879635 
-0.233585 0.132323 -0.963291 -0.233585 0.132323 -0.963291 -0.233585 0.132323 -0.963291 
0.117636 -0.0254339 -0.992731 0.117636 -0.0254339 -0.992731 0.117636 -0.0254339 -0.992731 
0.213808 -0.125806 -0.968741 0.213808 -0.125806 -0.968741 0.213808 -0.125806 -0.968741 
0.284885 -0.288267 -0.91419 0.284885 -0.288267 -0.91419 0.284885 -0.288267 -0.91419 
-0.248609 0.236053 0.9394 -0.248609 0.236053 0.9394 -0.248609 0.236053 0.9394 
0.439988 -0.270056 -0.856435 0.439988 -0.270056 -0.856435 0.439988 -0.270056 -0.856435 
0.101722 -0.046142 0.993742 0.101722 -0.046142 0.993742 0.101722 -0.046142 0.993742 
0.0985314 0.25248 0.962572 0.0985314 0.25248 0.962572 0.0985314 0.25248 0.962572 
0.561829 -0.38535 -0.73202 0.561829 -0.38535 -0.73202 0.561829 -0.38535 -0.73202 
0.609214 0.00387522 0.792996 0.609214 0.00387522 0.792996 0.609214 0.00387522 0.792996 
0.706489 -0.443793 -0.551291 0.706489 -0.443793 -0.551291 0.706489 -0.443793 -0.551291 
0.708324 -0.44822 -0.545322 0.708324 -0.44822 -0.545322 0.708324 -0.44822 -0.545322 
0.879813 -0.462231 -0.11078 0.879813 -0.462231 -0.11078 0.879813 -0.462231 -0.11078 
0.925374 -0.326945 0.191809 0.925374 -0.326945 0.191809 0.925374 -0.326945 0.191809 
0.858565 -0.303341 0.41334 0.858565 -0.303341 0.41334 0.858565 -0.303341 0.41334 
-0.553336 0.614783 -0.562015 -0.553336 0.614783 -0.562015 -0.553336 0.614783 -0.562015 
-0.577992 0.802865 0.146056 -0.577992 0.802865 0.146056 -0.577992 0.802865 0.146056 
-0.551104 0.616244 0.562608 -0.551104 0.616244 0.562608 -0.551104 0.616244 0.562608 
-0.498546 0.485437 0.718194 -0.498546 0.485437 0.718194 -0.498546 0.485437 0.718194 
-0.321446 0.283028 0.903641 -0.321446 0.283028 0.903641 -0.321446 0.283028 0.903641 
-0.0422347 0.243487 0.968984 -0.0422347 0.243487 0.968984 -0.0422347 0.243487 0.968984 
0.330294 0.197661 0.92295 0.330294 0.197661 0.92295 0.330294 0.197661 0.92295 
0.858778 -0.45118 -0.24277 0.858778 -0.45118 -0.24277 0.858778 -0.45118 -0.24277 
0 -1 0 0 -1 0 0 -1 0 
-0.588223 0.547942 -0.594772 -0.588223 0.547942 -0.594772 -0.588223 0.547942 -0.594772 
-0.581534 0.807785 -0.0964454 -0.581534 0.807785 -0.0964454 -0.581534 0.807785 -0.0964454 
-0.559677 0.80367 0.202178 -0.559677 0.80367 0.202178 -0.559677 0.80367 0.202178 
-0.476985 0.438094 -0.761945 -0.476985 0.438094 -0.761945 -0.476985 0.438094 -0.761945 
-0.595865 0.547281 -0.587731 -0.595865 0.547281 -0.587731 -0.595865 0.547281 -0.587731 
-0.539035 0.67855 0.499011 -0.539035 0.67855 0.499011 -0.539035 0.67855 0.499011 
-0.0757546 0.289761 -0.954096 -0.0757546 0.289761 -0.954096 -0.0757546 0.289761 -0.954096 
0.0825164 0.0821814 -0.993195 0.0825164 0.0821814 -0.993195 0.0825164 0.0821814 -0.993195 
-0.0521197 -0.191324 -0.980142 -0.0521197 -0.191324 -0.980142 -0.0521197 -0.191324 -0.980142 
-0.510939 0.464863 0.72308 -0.510939 0.464863 0.72308 -0.510939 0.464863 0.72308 
0.453809 -0.243056 -0.85731 0.453809 -0.243056 -0.85731 0.453809 -0.243056 -0.85731 
0.796037 -0.185622 0.576081 0.796037 -0.185622 0.576081 0.796037 -0.185622 0.576081 
0.501734 0.00422714 0.865011 0.501734 0.00422714 0.865011 0.501734 0.00422714 0.865011 
-0.441279 0.784746 -0.435255 -0.441279 0.784746 -0.435255 -0.441279 0.784746 -0.435255 
-0.483675 0.860139 -0.161924 -0.483675 0.860139 -0.161924 -0.483675 0.860139 -0.161924 
-0.501485 0.855567 -0.128525 -0.501485 0.855567 -0.128525 -0.501485 0.855567 -0.128525 
-0.576501 0.784944 0.226959 -0.576501 0.784944 0.226959 -0.576501 0.784944 0.226959 
-0.59837 0.636644 0.486455 -0.59837 0.636644 0.486455 -0.59837 0.636644 0.486455 
-0.18249 0.54797 -0.81635 -0.18249 0.54797 -0.81635 -0.18249 0.54797 -0.81635 
-0.505234 0.537551 0.675112 -0.505234 0.537551 0.675112 -0.505234 0.537551 0.675112 
-0.307093 0.400526 0.863292 -0.307093 0.400526 0.863292 -0.307093 0.400526 0.863292 
0.0309863 -0.128723 -0.991196 0.0309863 -0.128723 -0.991196 0.0309863 -0.128723 -0.991196 
0.00564979 0.33237 0.943132 0.00564979 0.33237 0.943132 0.00564979 0.33237 0.943132 
0.223046 -0.189838 -0.956144 0.223046 -0.189838 -0.956144 0.223046 -0.189838 -0.956144 
0.460165 -0.334328 -0.82248 0.460165 -0.334328 -0.82248 0.460165 -0.334328 -0.82248 
0.393294 0.0637237 0.917202 0.393294 0.0637237 0.917202 0.393294 0.0637237 0.917202 
0.488927 0.0214937 0.87206 0.488927 0.0214937 0.87206 0.488927 0.0214937 0.87206 
0.702382 -0.478949 -0.526561 0.702382 -0.478949 -0.526561 0.702382 -0.478949 -0.526561 
-0.742044 0.592571 -0.313416 -0.742044 0.592571 -0.313416 -0.742044 0.592571 -0.313416 
-0.154993 0.343821 -0.926156 -0.154993 0.343821 -0.926156 -0.154993 0.343821 -0.926156 
-0.316168 0.701358 -0.638854 -0.316168 0.701358 -0.638854 -0.316168 0.701358 -0.638854 
-0.492978 0.547411 0.67625 -0.492978 0.547411 0.67625 -0.492978 0.547411 0.67625 
0.0175405 -0.122 -0.992375 0.0175405 -0.122 -0.992375 0.0175405 -0.122 -0.992375 
0.41351 -0.0747771 0.907424 0.41351 -0.0747771 0.907424 0.41351 -0.0747771 0.907424 
0.721906 -0.260423 0.641118 0.721906 -0.260423 0.641118 0.721906 -0.260423 0.641118 
0.851446 -0.465945 -0.240697 0.851446 -0.465945 -0.240697 0.851446 -0.465945 -0.240697 