# vtk DataFile Version 4.2
3D Slicer output. SPACE=LPS
ASCII
DATASET POLYDATA
POINTS 2496 double
3.6181921959 -3.4591393471 1.5350656509 3.9540205002 -4.3173398972 0.67606067657 7.1256036758 -4.3173398972 2.5895433426 
6.2468318939 -4.7139196396 -0.18294429779 6.2468318939 -3.4591393471 -1.5940914154 8.0043764114 -5.080411911 0.67606067657 
6.2468318939 -4.7139196396 -0.18294429779 8.0043764114 -5.080411911 0.67606067657 3.9540205002 -4.3173398972 0.67606067657 
8.0043764114 -5.080411911 0.67606067657 8.0043764114 -5.130212307 1.5350656509 3.9540205002 -4.3173398972 0.67606067657 
3.9540205002 -4.3173398972 0.67606067657 8.0043764114 -5.130212307 1.5350656509 7.1256036758 -4.3173398972 2.5895433426 
8.0043764114 -4.759660244 2.3940706253 7.1256036758 -4.3173398972 2.5895433426 8.0043764114 -5.130212307 1.5350656509 
6.2468318939 -3.4591393471 -1.5940914154 8.0043764114 -3.4591393471 -1.4763097763 8.0043764114 -5.080411911 0.67606067657 
10.640693665 -4.1447629929 0.67606067657 8.0043764114 -5.130212307 1.5350656509 8.0043764114 -5.080411911 0.67606067657 
8.0043764114 -5.080411911 0.67606067657 8.0043764114 -3.4591393471 -1.4763097763 10.640693665 -3.6293721199 -0.18294429779 
10.640693665 -3.6293721199 -0.18294429779 10.640693665 -4.1447629929 0.67606067657 8.0043764114 -5.080411911 0.67606067657 
8.0043764114 -5.130212307 1.5350656509 10.640693665 -4.2725129128 2.3940706253 8.0043764114 -4.759660244 2.3940706253 
8.0043764114 -4.759660244 2.3940706253 10.640693665 -4.2725129128 2.3940706253 10.640693665 -3.4591393471 3.5882081985 
10.640693665 -4.1447629929 0.67606067657 10.640693665 -4.2725129128 2.3940706253 8.0043764114 -5.130212307 1.5350656509 
2.731742382 -3.4686818123 -1.0419492722 2.731742382 -3.9135746956 -0.18294429779 0.41545248032 -0.88453865051 -0.18294429779 
2.731742382 -3.9135746956 -0.18294429779 1.8529701233 -3.2637419701 0.67606067657 0.41545248032 -0.88453865051 -0.18294429779 
2.731742382 -3.9135746956 -0.18294429779 3.9540205002 -4.3173398972 0.67606067657 1.8529701233 -3.2637419701 0.67606067657 
1.8529701233 -3.2637419701 0.67606067657 3.9540205002 -4.3173398972 0.67606067657 3.6181921959 -3.4591393471 1.5350656509 
6.2468318939 -4.7139196396 -0.18294429779 2.731742382 -3.9135746956 -0.18294429779 2.731742382 -3.4686818123 -1.0419492722 
3.9540205002 -4.3173398972 0.67606067657 2.731742382 -3.9135746956 -0.18294429779 6.2468318939 -4.7139196396 -0.18294429779 
3.6105146408 -2.6009392738 -1.8757305145 6.2468318939 -3.4591393471 -1.5940914154 2.731742382 -3.4686818123 -1.0419492722 
6.2468318939 -3.4591393471 -1.5940914154 6.2468318939 -4.7139196396 -0.18294429779 2.731742382 -3.4686818123 -1.0419492722 
8.0043764114 -4.759660244 2.3940706253 9.761920929 -2.6009392738 4.0963811874 7.1256036758 -4.3173398972 2.5895433426 
8.0043764114 -3.4591393471 -1.4763097763 10.640693665 -2.6009392738 -1.2255277634 10.640693665 -3.6293721199 -0.18294429779 
9.761920929 -2.6009392738 4.0963811874 8.0043764114 -4.759660244 2.3940706253 10.640693665 -3.4591393471 3.5882081985 
10.640693665 -4.2725129128 2.3940706253 14.155781746 -2.4218449593 3.2530755997 10.640693665 -3.4591393471 3.5882081985 
14.155781746 -2.6225171089 2.3940706253 10.640693665 -4.2725129128 2.3940706253 10.640693665 -4.1447629929 0.67606067657 
2.731742382 -3.4686818123 -1.0419492722 0.41545248032 -0.88453865051 -0.18294429779 1.8529701233 -2.6009392738 -1.3992061615 
1.8529701233 -3.2637419701 0.67606067657 1.0906400681 -1.7427392006 0.67606067657 0.41545248032 -0.88453865051 -0.18294429779 
2.731742382 -3.4686818123 -1.0419492722 1.8529701233 -2.6009392738 -1.3992061615 3.6105146408 -2.6009392738 -1.8757305145 
3.6105146408 -2.6009392738 -1.8757305145 7.1256036758 -0.88453865051 -2.9197807312 6.2468318939 -3.4591393471 -1.5940914154 
7.1256036758 -4.3173398972 2.5895433426 4.4892873764 -2.6009392738 2.4423894882 3.6181921959 -3.4591393471 1.5350656509 
6.2468318939 -3.4591393471 -1.5940914154 7.1256036758 -0.88453865051 -2.9197807312 8.0043764114 -2.6009392738 -2.0599422455 
8.0043764114 -3.4591393471 -1.4763097763 6.2468318939 -3.4591393471 -1.5940914154 8.0043764114 -2.6009392738 -2.0599422455 
4.4892873764 -2.6009392738 2.4423894882 7.1256036758 -4.3173398972 2.5895433426 8.0043764114 -2.6009392738 3.7899045944 
8.0043764114 -2.6009392738 3.7899045944 7.1256036758 -4.3173398972 2.5895433426 9.761920929 -2.6009392738 4.0963811874 
9.761920929 -1.7427392006 -2.1953659058 8.0043764114 -3.4591393471 -1.4763097763 8.0043764114 -2.6009392738 -2.0599422455 
10.640693665 -2.6009392738 -1.2255277634 8.0043764114 -3.4591393471 -1.4763097763 9.761920929 -1.7427392006 -2.1953659058 
14.155781746 -2.6225171089 2.3940706253 14.155781746 -2.4218449593 3.2530755997 10.640693665 -4.2725129128 2.3940706253 
10.640693665 -4.1447629929 0.67606067657 10.640693665 -3.6293721199 -0.18294429779 14.155781746 -2.0761370659 0.67606067657 
14.155781746 -2.6225171089 2.3940706253 10.640693665 -4.1447629929 0.67606067657 14.155781746 -2.0761370659 0.67606067657 
1.8529701233 -3.2637419701 0.67606067657 1.8529701233 -1.7427392006 1.6066465378 1.0906400681 -1.7427392006 0.67606067657 
3.6181921959 -3.4591393471 1.5350656509 1.8529701233 -1.7427392006 1.6066465378 1.8529701233 -3.2637419701 0.67606067657 
4.4892873764 -2.6009392738 2.4423894882 1.8529701233 -1.7427392006 1.6066465378 3.6181921959 -3.4591393471 1.5350656509 
4.4892873764 -2.6009392738 2.4423894882 8.0043764114 -0.88453865051 4.0603761673 1.8529701233 -1.7427392006 1.6066465378 
8.0043764114 -2.6009392738 3.7899045944 8.0043764114 -0.88453865051 4.0603761673 4.4892873764 -2.6009392738 2.4423894882 
9.761920929 -0.88453865051 4.4947519302 8.0043764114 -2.6009392738 3.7899045944 9.761920929 -2.6009392738 4.0963811874 
9.761920929 -2.6009392738 4.0963811874 10.640693665 -3.4591393471 3.5882081985 13.277010918 -0.88453865051 4.7527093887 
14.155781746 -1.7427392006 4.1431722641 10.640693665 -3.4591393471 3.5882081985 14.155781746 -2.4218449593 3.2530755997 
10.640693665 -3.4591393471 3.5882081985 14.155781746 -1.7427392006 4.1431722641 13.277010918 -0.88453865051 4.7527093887 
14.155781746 -2.4218449593 3.2530755997 14.155781746 -2.6225171089 2.3940706253 15.913327217 -0.94116306305 3.2530755997 
3.6105146408 -0.026338577271 -2.594745636 1.8529701233 -2.6009392738 -1.3992061615 0.84165287018 -0.026338577271 -1.0419492722 
1.8529701233 -2.6009392738 -1.3992061615 0.41545248032 -0.88453865051 -0.18294429779 0.84165287018 -0.026338577271 -1.0419492722 
3.6105146408 -2.6009392738 -1.8757305145 1.8529701233 -2.6009392738 -1.3992061615 3.6105146408 -0.026338577271 -2.594745636 
8.0043764114 -2.6009392738 -2.0599422455 7.1256036758 -0.88453865051 -2.9197807312 8.8831481934 -0.026338577271 -3.1749076843 
8.8831481934 -0.026338577271 -3.1749076843 9.761920929 -1.7427392006 -2.1953659058 8.0043764114 -2.6009392738 -2.0599422455 
9.761920929 -0.88453865051 4.4947519302 8.0043764114 -0.88453865051 4.0603761673 8.0043764114 -2.6009392738 3.7899045944 
13.277010918 -0.88453865051 4.7527093887 9.761920929 -0.88453865051 4.4947519302 9.761920929 -2.6009392738 4.0963811874 
10.640693665 -2.6009392738 -1.2255277634 14.155781746 -2.0761370659 0.67606067657 10.640693665 -3.6293721199 -0.18294429779 
14.155781746 -1.7427392006 4.1431722641 15.034554482 -0.026338577271 4.5411634445 13.277010918 -0.88453865051 4.7527093887 
14.155781746 -2.0761370659 0.67606067657 16.792098999 0.88019943237 -0.18294429779 14.155781746 -2.6225171089 2.3940706253 
15.913327217 -0.94116306305 3.2530755997 14.155781746 -1.7427392006 4.1431722641 14.155781746 -2.4218449593 3.2530755997 
15.913327217 -0.94116306305 3.2530755997 14.155781746 -2.6225171089 2.3940706253 16.792098999 -0.11387634277 1.5350656509 
0.84165287018 -0.026338577271 -1.0419492722 0.41545248032 -0.88453865051 -0.18294429779 0.60222434998 -0.026338577271 0.67606067657 
0.41545248032 -0.88453865051 -0.18294429779 1.0906400681 -1.7427392006 0.67606067657 0.60222434998 -0.026338577271 0.67606067657 
1.8529701233 -0.026338577271 -2.0600318909 3.6105146408 -0.026338577271 -2.594745636 0.84165287018 -0.026338577271 -1.0419492722 
1.8529701233 -1.7427392006 1.6066465378 1.8529701233 -0.026338577271 1.803902626 0.60222434998 -0.026338577271 0.67606067657 
1.0906400681 -1.7427392006 0.67606067657 1.8529701233 -1.7427392006 1.6066465378 0.60222434998 -0.026338577271 0.67606067657 
1.8529701233 -0.026338577271 1.803902626 1.8529701233 -1.7427392006 1.6066465378 8.0043764114 -0.88453865051 4.0603761673 
7.1256036758 -0.88453865051 -2.9197807312 3.6105146408 -2.6009392738 -1.8757305145 3.6105146408 -0.026338577271 -2.594745636 
9.761920929 -0.88453865051 4.4947519302 8.8831481934 -0.026338577271 4.3220396042 8.0043764114 -0.88453865051 4.0603761673 
10.640693665 -2.6009392738 -1.2255277634 9.761920929 -1.7427392006 -2.1953659058 15.913327217 1.9312267303 -1.9009542465 
10.640693665 -2.6009392738 -1.2255277634 15.913327217 1.9312267303 -1.9009542465 14.155781746 -2.0761370659 0.67606067657 
14.155781746 -2.0761370659 0.67606067657 15.913327217 1.9312267303 -1.9009542465 16.792098999 0.88019943237 -0.18294429779 
15.913327217 -0.026338577271 4.0828504562 14.155781746 -1.7427392006 4.1431722641 15.913327217 -0.94116306305 3.2530755997 
15.034554482 -0.026338577271 4.5411634445 14.155781746 -1.7427392006 4.1431722641 15.913327217 -0.026338577271 4.0828504562 
16.792098999 0.88019943237 -0.18294429779 16.792098999 -0.11387634277 1.5350656509 14.155781746 -2.6225171089 2.3940706253 
0.84165287018 -0.026338577271 -1.0419492722 0.60222434998 -0.026338577271 0.67606067657 0.35378026962 0.83186149597 -0.18294429779 
1.8529701233 -0.026338577271 1.803902626 1.8529701233 1.6900615692 1.5990524292 0.60222434998 -0.026338577271 0.67606067657 
5.3680591583 0.83186149597 2.9428777695 1.8529701233 1.6900615692 1.5990524292 1.8529701233 -0.026338577271 1.803902626 
7.1256036758 1.6900615692 -3.5739088058 3.6105146408 -0.026338577271 -2.594745636 6.2468318939 2.5482625961 -3.4626989365 
[...]
CELL_DATA 832
FIELD FieldData 1
GroupIds 1 832 float
0 0 0 0 0 0 0 0 0 
0 0 0 0 0 0 0 0 0 
0 0 0 0 0 0 0 0 0 
0 0 0 0 0 0 0 0 0 
0 0 0 0 0 0 0 0 0 
0 0 0 0 0 0 0 0 0 
0 0 0 0 0 0 0 0 0 
0 0 0 0 0 0 0 0 0 
0 0 0 0 0 0 0 0 0 
0 0 0 0 0 0 0 0 0 
0 0 0 0 0 0 0 0 0 
0 0 0 0 0 0 0 0 0 
0 0 0 0 0 0 0 0 0 
0 0 0 0 0 0 0 0 0 
0 0 0 0 0 0 0 0 0 
0 0 0 0 0 0 0 0 0 
0 0 0 0 0 0 0 0 0 
0 0 0 0 0 0 0 0 0 
0 0 0 0 0 0 0 0 0 
0 0 0 0 0 0 0 0 0 
0 0 0 0 0 0 0 0 0 
0 0 0 0 0 0 0 0 0 
0 0 0 0 0 0 0 0 0 
0 0 0 0 0 0 0 0 0 
0 0 0 0 0 0 0 0 0 
0 0 0 0 0 0 0 0 0 
0 0 0 0 0 0 0 0 0 
0 0 0 0 0 0 0 0 0 
0 0 0 0 0 0 0 0 0 
0 0 0 0 0 0 0 0 0 
0 0 0 0 0 0 0 0 0 
0 0 0 0 0 0 0 0 0 
0 0 0 0 0 0 0 0 0 
0 0 0 0 0 0 0 0 0 
0 0 0 0 0 0 0 0 0 
0 0 0 0 0 0 0 0 0 
0 0 0 0 0 0 0 0 0 
0 0 0 0 0 0 0 0 0 
0 0 0 0 0 0 0 0 0 
0 0 0 0 0 0 0 0 0 
0 0 0 0 0 0 0 0 0 
0 0 0 0 0 0 0 0 0 
0 0 0 0 0 0 0 0 0 
0 0 0 0 0 0 0 0 0 
0 0 0 0 0 0 0 0 0 
0 0 0 0 0 0 0 0 0 
0 0 0 0 0 0 0 0 0 
0 0 0 0 0 0 0 0 0 
0 0 0 0 0 0 0 0 0 
0 0 0 0 0 0 0 0 0 
0 0 0 0 0 0 0 0 0 
0 0 0 0 0 0 0 0 0 
0 0 0 0 0 0 0 0 0 
0 0 0 0 0 0 0 0 0 
0 0 0 0 0 0 0 0 0 
0 0 0 0 0 0 0 0 0 
0 0 0 0 0 0 0 0 0 
0 0 0 0 0 0 0 0 0 
0 0 0 0 0 0 0 0 0 
0 0 0 0 0 0 0 0 0 
0 0 0 0 0 0 0 0 0 
0 0 0 0 0 0 0 0 0 
0 0 0 0 0 0 0 0 0 
0 0 0 0 0 0 0 0 0 
0 0 0 0 0 0 0 0 0 
0 0 0 0 0 0 0 0 0 
0 0 0 0 0 0 0 0 0 
0 0 0 0 0 0 0 0 0 
0 0 0 0 0 0 0 0 0 
0 0 0 0 0 0 0 0 0 
0 0 0 0 0 0 0 0 0 
0 0 0 0 0 0 0 0 0 
0 0 0 0 0 0 0 0 0 
0 0 0 0 0 0 0 0 0 
0 0 0 0 0 0 0 0 0 
0 0 0 0 0 0 0 0 0 
0 0 0 0 0 0 0 0 0 
0 0 0 0 0 0 0 0 0 
0 0 0 0 0 0 0 0 0 
0 0 0 0 0 0 0 0 0 
0 0 0 0 0 0 0 0 0 
0 0 0 0 0 0 0 0 0 
0 0 0 0 0 0 0 0 0 
0 0 0 0 0 0 0 0 0 
0 0 0 0 0 0 0 0 0 
0 0 0 0 0 0 0 0 0 
0 0 0 0 0 0 0 0 0 
0 0 0 0 0 0 0 0 0 
0 0 0 0 0 0 0 0 0 
0 0 0 0 0 0 0 0 0 
0 0 0 0 0 0 0 0 0 
0 0 0 0 0 0 0 0 0 
0 0 0 0 
POINT_DATA 2496
NORMALS Normals float
-0.354635 -0.727131 0.587805 -0.354635 -0.727131 0.587805 -0.354635 -0.727131 0.587805 
0.166581 -0.736856 -0.655206 0.166581 -0.736856 -0.655206 0.166581 -0.736856 -0.655206 
-0.184988 -0.981908 -0.0404391 -0.184988 -0.981908 -0.0404391 -0.184988 -0.981908 -0.0404391 
-0.18484 -0.981121 -0.05688 -0.18484 -0.981121 -0.05688 -0.18484 -0.981121 -0.05688 
-0.265485 -0.857837 0.440039 -0.265485 -0.857837 0.440039 -0.265485 -0.857837 0.440039 
-0.350356 -0.860012 0.370986 -0.350356 -0.860012 0.370986 -0.350356 -0.860012 0.370986 
0.0402874 -0.798104 -0.601172 0.0402874 -0.798104 -0.601172 0.0402874 -0.798104 -0.601172 
0.333969 -0.941004 -0.0545542 0.333969 -0.941004 -0.0545542 0.333969 -0.941004 -0.0545542 
0.236674 -0.776059 -0.584566 0.236674 -0.776059 -0.584566 0.236674 -0.776059 -0.584566 
0.291148 -0.82035 -0.492198 0.291148 -0.82035 -0.492198 0.291148 -0.82035 -0.492198 
0.167279 -0.905273 0.390511 0.167279 -0.905273 0.390511 0.167279 -0.905273 0.390511 
0.150971 -0.817016 0.556501 0.150971 -0.817016 0.556501 0.150971 -0.817016 0.556501 
0.329178 -0.941668 -0.0700217 0.329178 -0.941668 -0.0700217 0.329178 -0.941668 -0.0700217 
-0.757747 -0.579445 -0.300104 -0.757747 -0.579445 -0.300104 -0.757747 -0.579445 -0.300104 
-0.749035 -0.572784 -0.332964 -0.749035 -0.572784 -0.332964 -0.749035 -0.572784 -0.332964 
-0.438004 -0.873453 0.212679 -0.438004 -0.873453 0.212679 -0.438004 -0.873453 0.212679 
-0.364154 -0.726184 0.583138 -0.364154 -0.726184 0.583138 -0.364154 -0.726184 0.583138 
-0.198171 -0.870362 -0.450775 -0.198171 -0.870362 -0.450775 -0.198171 -0.870362 -0.450775 
-0.219789 -0.965305 -0.140993 -0.219789 -0.965305 -0.140993 -0.219789 -0.965305 -0.140993 
-0.119847 -0.622077 -0.773729 -0.119847 -0.622077 -0.773729 -0.119847 -0.622077 -0.773729 
-0.101816 -0.743413 -0.661037 -0.101816 -0.743413 -0.661037 -0.101816 -0.743413 -0.661037 
-0.101445 -0.563779 0.819672 -0.101445 -0.563779 0.819672 -0.101445 -0.563779 0.819672 
0.286077 -0.682168 -0.672909 0.286077 -0.682168 -0.672909 0.286077 -0.682168 -0.672909 
-0.0871515 -0.572138 0.815514 -0.0871515 -0.572138 0.815514 -0.0871515 -0.572138 0.815514 
0.285208 -0.792161 0.539572 0.285208 -0.792161 0.539572 0.285208 -0.792161 0.539572 
0.42396 -0.903188 -0.0671603 0.42396 -0.903188 -0.0671603 0.42396 -0.903188 -0.0671603 
-0.720978 -0.683725 0.112744 -0.720978 -0.683725 0.112744 -0.720978 -0.683725 0.112744 
-0.866268 -0.434175 0.247127 -0.866268 -0.434175 0.247127 -0.866268 -0.434175 0.247127 
-0.218165 -0.552218 -0.804648 -0.218165 -0.552218 -0.804648 -0.218165 -0.552218 -0.804648 
-0.0489484 -0.443982 -0.894698 -0.0489484 -0.443982 -0.894698 -0.0489484 -0.443982 -0.894698 
-0.358304 -0.481779 0.799692 -0.358304 -0.481779 0.799692 -0.358304 -0.481779 0.799692 
-0.0145724 -0.453803 -0.890983 -0.0145724 -0.453803 -0.890983 -0.0145724 -0.453803 -0.890983 
0.0553298 -0.561486 -0.825635 0.0553298 -0.561486 -0.825635 0.0553298 -0.561486 -0.825635 
-0.323986 -0.425171 0.845141 -0.323986 -0.425171 0.845141 -0.323986 -0.425171 0.845141 
-0.14724 -0.515126 0.844373 -0.14724 -0.515126 0.844373 -0.14724 -0.515126 0.844373 
0.206338 -0.550246 -0.809107 0.206338 -0.550246 -0.809107 0.206338 -0.550246 -0.809107 
0.264742 -0.59048 -0.762394 0.264742 -0.59048 -0.762394 0.264742 -0.59048 -0.762394 
0.415725 -0.885645 0.206896 0.415725 -0.885645 0.206896 0.415725 -0.885645 0.206896 
0.450522 -0.765545 -0.459316 0.450522 -0.765545 -0.459316 0.450522 -0.765545 -0.459316 
0.489148 -0.831179 -0.26434 0.489148 -0.831179 -0.26434 0.489148 -0.831179 -0.26434 
-0.721259 -0.361497 0.590851 -0.721259 -0.361497 0.590851 -0.721259 -0.361497 0.590851 
-0.427484 -0.471803 0.771142 -0.427484 -0.471803 0.771142 -0.427484 -0.471803 0.771142 
-0.398843 -0.443657 0.802554 -0.398843 -0.443657 0.802554 -0.398843 -0.443657 0.802554 
-0.345899 -0.162694 0.924059 -0.345899 -0.162694 0.924059 -0.345899 -0.162694 0.924059 
-0.354138 -0.145572 0.923794 -0.354138 -0.145572 0.923794 -0.354138 -0.145572 0.923794 
-0.167464 -0.222894 0.960351 -0.167464 -0.222894 0.960351 -0.167464 -0.222894 0.960351 
0.0604139 -0.462056 0.884791 0.0604139 -0.462056 0.884791 0.0604139 -0.462056 0.884791 
0.280686 -0.763068 0.582188 0.280686 -0.763068 0.582188 0.280686 -0.763068 0.582188 
0.108254 -0.499591 0.859471 0.108254 -0.499591 0.859471 0.108254 -0.499591 0.859471 
0.634257 -0.752852 0.175874 0.634257 -0.752852 0.175874 0.634257 -0.752852 0.175874 
-0.487907 -0.0709283 -0.870009 -0.487907 -0.0709283 -0.870009 -0.487907 -0.0709283 -0.870009 
-0.769235 -0.218859 -0.600315 -0.769235 -0.218859 -0.600315 -0.769235 -0.218859 -0.600315 
-0.252665 -0.260253 -0.931895 -0.252665 -0.260253 -0.931895 -0.252665 -0.260253 -0.931895 
0.0720872 -0.416983 -0.906051 0.0720872 -0.416983 -0.906051 0.0720872 -0.416983 -0.906051 
0.143447 -0.434113 -0.889364 0.143447 -0.434113 -0.889364 0.143447 -0.434113 -0.889364 
-0.237171 -0.151219 0.959626 -0.237171 -0.151219 0.959626 -0.237171 -0.151219 0.959626 
-0.0713036 -0.225511 0.971628 -0.0713036 -0.225511 0.971628 -0.0713036 -0.225511 0.971628 
0.437255 -0.640258 -0.631568 0.437255 -0.640258 -0.631568 0.437255 -0.640258 -0.631568 
0.278554 -0.35 0.894376 0.278554 -0.35 0.894376 0.278554 -0.35 0.894376 
0.696219 -0.684068 -0.217555 0.696219 -0.684068 -0.217555 0.696219 -0.684068 -0.217555 
0.556495 -0.66055 0.503972 0.556495 -0.66055 0.503972 0.556495 -0.66055 0.503972 
0.690111 -0.723689 0.00451213 0.690111 -0.723689 0.00451213 0.690111 -0.723689 0.00451213 
-0.933739 0.333463 -0.13013 -0.933739 0.333463 -0.13013 -0.933739 0.333463 -0.13013 
-0.866233 -0.246493 0.434606 -0.866233 -0.246493 0.434606 -0.866233 -0.246493 0.434606 
0 -1 0 0 -1 0 0 -1 0 
-0.667251 -0.0850397 0.739963 -0.667251 -0.0850397 0.739963 -0.667251 -0.0850397 0.739963 
-0.755486 -0.21498 0.61889 -0.755486 -0.21498 0.61889 -0.755486 -0.21498 0.61889 
-0.355505 -0.106714 0.928562 -0.355505 -0.106714 0.928562 -0.355505 -0.106714 0.928562 
-0.152912 -0.265817 -0.951819 -0.152912 -0.265817 -0.951819 -0.152912 -0.265817 -0.951819 
-0.239627 -0.050247 0.969564 -0.239627 -0.050247 0.969564 -0.239627 -0.050247 0.969564 
0.349043 -0.522049 -0.778225 0.349043 -0.522049 -0.778225 0.349043 -0.522049 -0.778225 
0.444452 -0.614241 -0.652051 0.444452 -0.614241 -0.652051 0.444452 -0.614241 -0.652051 
0.484862 -0.613493 -0.623326 0.484862 -0.613493 -0.623326 0.484862 -0.613493 -0.623326 
0.563175 -0.555164 0.612067 0.563175 -0.555164 0.612067 0.563175 -0.555164 0.612067 
0.422898 -0.404538 0.810868 0.422898 -0.404538 0.810868 0.422898 -0.404538 0.810868 
0.5511 -0.722248 -0.417907 0.5511 -0.722248 -0.417907 0.5511 -0.722248 -0.417907 
-0.91156 -0.391049 -0.127039 -0.91156 -0.391049 -0.127039 -0.91156 -0.391049 -0.127039 
-0.667061 0.0882886 0.739753 -0.667061 0.0882886 0.739753 -0.667061 0.0882886 0.739753 
-0.330917 0.111831 0.93701 -0.330917 0.111831 0.93701 -0.330917 0.111831 0.93701 
-0.221065 -0.10066 -0.97005 -0.221065 -0.10066 -0.97005 -0.221065 -0.10066 -0.97005 
-0.148091 -0.243531 -0.958521 -0.148091 -0.243531 -0.958521 -0.148091 -0.243531 -0.958521 
-0.329589 0.104669 0.938305 -0.329589 0.104669 0.938305 -0.329589 0.104669 0.938305 
-0.34892 0.0724024 0.934351 -0.34892 0.0724024 0.934351 -0.34892 0.0724024 0.934351 
-0.174485 0.0194559 0.984468 -0.174485 0.0194559 0.984468 -0.174485 0.0194559 0.984468 
0.209778 -0.401402 -0.891554 0.209778 -0.401402 -0.891554 0.209778 -0.401402 -0.891554 
0.347483 -0.519229 -0.780806 0.347483 -0.519229 -0.780806 0.347483 -0.519229 -0.780806 
-0.0724883 -0.138041 0.98777 -0.0724883 -0.138041 0.98777 -0.0724883 -0.138041 0.98777 
0.216215 -0.207632 0.954013 0.216215 -0.207632 0.954013 0.216215 -0.207632 0.954013 
0.685472 -0.489164 0.539302 0.685472 -0.489164 0.539302 0.685472 -0.489164 0.539302 
0.674897 -0.638699 -0.369564 0.674897 -0.638699 -0.369564 0.674897 -0.638699 -0.369564 
0.831083 -0.552193 -0.0662178 0.831083 -0.552193 -0.0662178 0.831083 -0.552193 -0.0662178 
0.806497 -0.575529 0.135389 0.806497 -0.575529 0.135389 0.806497 -0.575529 0.135389 
0.767238 -0.618936 0.168116 0.767238 -0.618936 0.168116 0.767238 -0.618936 0.168116 
-0.862296 0.211105 0.460304 -0.862296 0.211105 0.460304 -0.862296 0.211105 0.460304 
-0.776025 0.167474 -0.608061 -0.776025 0.167474 -0.608061 -0.776025 0.167474 -0.608061 
-0.707077 0.0819032 -0.702378 -0.707077 0.0819032 -0.702378 -0.707077 0.0819032 -0.702378 
-0.731343 0.179046 0.658088 -0.731343 0.179046 0.658088 -0.731343 0.179046 0.658088 
-0.290979 -0.0244741 -0.956416 -0.290979 -0.0244741 -0.956416 -0.290979 -0.0244741 -0.956416 
-0.359253 0.108091 -0.926959 -0.359253 0.108091 -0.926959 -0.359253 0.108091 -0.926959 
-0.318042 0.160475 0.934397 -0.318042 0.160475 0.934397 -0.318042 0.160475 0.934397 
-0.324364 0.167554 0.930974 -0.324364 0.167554 0.930974 -0.324364 0.167554 0.930974 
-0.0413841 -0.246035 -0.968377 -0.0413841 -0.246035 -0.968377 -0.0413841 -0.246035 -0.968377 
-0.0114092 -0.263398 -0.96462 -0.0114092 -0.263398 -0.96462 -0.0114092 -0.263398 -0.96462 
-0.280486 0.20071 0.938639 -0.280486 0.20071 0.938639 -0.280486 0.20071 0.938639 
0.0249133 -0.271969 -0.961984 0.0249133 -0.271969 -0.961984 0.0249133 -0.271969 -0.961984 
-0.177161 0.0309613 0.983695 -0.177161 0.0309613 0.983695 -0.177161 0.0309613 0.983695 
0.196889 -0.374546 -0.906063 0.196889 -0.374546 -0.906063 0.196889 -0.374546 -0.906063 
0.0755498 -0.0630012 0.99515 0.0755498 -0.0630012 0.99515 0.0755498 -0.0630012 0.99515 
0.454049 -0.189477 0.870597 0.454049 -0.189477 0.870597 0.454049 -0.189477 0.870597 
-0.782393 0.294756 -0.548616 -0.782393 0.294756 -0.548616 -0.782393 0.294756 -0.548616 
-0.710496 0.29403 0.639329 -0.710496 0.29403 0.639329 -0.710496 0.29403 0.639329 
-0.292315 0.399583 0.868841 -0.292315 0.399583 0.868841 -0.292315 0.399583 0.868841 
-0.332228 0.448267 0.829868 -0.332228 0.448267 0.829868 -0.332228 0.448267 0.829868 
0.0755123 0.0703964 0.994657 0.0755123 0.0703964 0.994657 0.0755123 0.0703964 0.994657 
0.484808 -0.151118 0.861467 0.484808 -0.151118 0.861467 0.484808 -0.151118 0.861467 
0.584032 -0.524439 -0.619572 0.584032 -0.524439 -0.619572 0.584032 -0.524439 -0.619572 
0.525129 -0.169143 0.834045 0.525129 -0.169143 0.834045 0.525129 -0.169143 0.834045 
0.655833 -0.295067 0.694852 0.655833 -0.295067 0.694852 0.655833 -0.295067 0.694852 
0.714387 -0.51776 -0.470718 0.714387 -0.51776 -0.470718 0.714387 -0.51776 -0.470718 
0.807473 -0.363292 0.464764 0.807473 -0.363292 0.464764 0.807473 -0.363292 0.464764 
-0.795384 0.564771 -0.219997 -0.795384 0.564771 -0.219997 -0.795384 0.564771 -0.219997 
-0.864173 0.452038 0.221057 -0.864173 0.452038 0.221057 -0.864173 0.452038 0.221057 
-0.746304 0.390383 0.539103 -0.746304 0.390383 0.539103 -0.746304 0.390383 0.539103 
-0.336789 0.552244 0.762627 -0.336789 0.552244 0.762627 -0.336789 0.552244 0.762627 
-0.353981 0.070597 -0.932584 -0.353981 0.070597 -0.932584 -0.353981 0.070597 -0.932584 
-0.340798 0.429727 0.836177 -0.340798 0.429727 0.836177 -0.340798 0.429727 0.836177 
-0.251334 0.311306 0.916471 -0.251334 0.311306 0.916471 -0.251334 0.311306 0.916471 
0.196689 -0.376874 -0.905141 0.196689 -0.376874 -0.905141 0.196689 -0.376874 -0.905141 
-0.0566833 0.15489 0.986304 -0.0566833 0.15489 0.986304 -0.0566833 0.15489 0.986304 
0.0405486 0.106032 0.993536 0.0405486 0.106032 0.993536 0.0405486 0.106032 0.993536 
0.398223 -0.430799 -0.809833 0.398223 -0.430799 -0.809833 0.398223 -0.430799 -0.809833 
0.309369 0.0065851 0.950919 0.309369 0.0065851 0.950919 0.309369 0.0065851 0.950919 
0.528923 -0.474954 -0.70332 0.528923 -0.474954 -0.70332 0.528923 -0.474954 -0.70332 
0.6359 -0.549772 -0.541647 0.6359 -0.549772 -0.541647 0.6359 -0.549772 -0.541647 
0.83605 -0.544287 -0.0690811 0.83605 -0.544287 -0.0690811 0.83605 -0.544287 -0.0690811 
0.886831 -0.459998 0.0439618 0.886831 -0.459998 0.0439618 0.886831 -0.459998 0.0439618 
0.860889 -0.332204 0.38537 0.860889 -0.332204 0.38537 0.860889 -0.332204 0.38537 
-0.802258 0.569652 0.178546 -0.802258 0.569652 0.178546 -0.802258 0.569652 0.178546 
-0.499327 0.410062 -0.763231 -0.499327 0.410062 -0.763231 -0.499327 0.410062 -0.763231 
-0.475771 0.742384 0.471708 -0.475771 0.742384 0.471708 -0.475771 0.742384 0.471708 
-0.421985 0.805835 0.415401 -0.421985 0.805835 0.415401 -0.421985 0.805835 0.415401 
-0.322869 0.616561 0.718059 -0.322869 0.616561 0.718059 -0.322869 0.616561 0.718059 
-0.408265 0.568996 0.713837 -0.408265 0.568996 0.713837 -0.408265 0.568996 0.713837 
-0.346956 0.48355 0.803618 -0.346956 0.48355 0.803618 -0.346956 0.48355 0.803618 
-0.202732 -0.0811333 -0.975868 -0.202732 -0.0811333 -0.975868 -0.202732 -0.0811333 -0.975868 
-0.326618 0.0552878 -0.943538 -0.326618 0.0552878 -0.943538 -0.326618 0.0552878 -0.943538 
-0.325978 0.432122 0.840838 -0.325978 0.432122 0.840838 -0.325978 0.432122 0.840838 
0.0819337 -0.21691 -0.972747 0.0819337 -0.21691 -0.972747 0.0819337 -0.21691 -0.972747 
0.0942026 -0.224804 -0.96984 0.0942026 -0.224804 -0.96984 0.0942026 -0.224804 -0.96984 
0.36969 -0.386977 -0.844736 0.36969 -0.386977 -0.844736 0.36969 -0.386977 -0.844736 
0.796834 -0.518757 -0.309753 0.796834 -0.518757 -0.309753 0.796834 -0.518757 -0.309753 
-0.501475 0.782491 -0.369094 -0.501475 0.782491 -0.369094 -0.501475 0.782491 -0.369094 
-0.567933 0.689815 -0.449006 -0.567933 0.689815 -0.449006 -0.567933 0.689815 -0.449006 
-0.621762 0.755196 0.207583 -0.621762 0.755196 0.207583 -0.621762 0.755196 0.207583 
-0.544619 0.448882 -0.708446 -0.544619 0.448882 -0.708446 -0.544619 0.448882 -0.708446 
-0.125194 -0.122476 -0.984544 -0.125194 -0.122476 -0.984544 -0.125194 -0.122476 -0.984544 
-0.333244 0.470573 0.817013 -0.333244 0.470573 0.817013 -0.333244 0.470573 0.817013 
-0.0622 -0.09078 -0.993927 -0.0622 -0.09078 -0.993927 -0.0622 -0.09078 -0.993927 
0.0287779 -0.136896 -0.990167 0.0287779 -0.136896 -0.990167 0.0287779 -0.136896 -0.990167 
-0.210052 0.306258 0.928485 -0.210052 0.306258 0.928485 -0.210052 0.306258 0.928485 
0.282189 -0.330684 -0.900565 0.282189 -0.330684 -0.900565 0.282189 -0.330684 -0.900565 
0.0372264 0.408199 0.912134 0.0372264 0.408199 0.912134 0.0372264 0.408199 0.912134 
0.30602 0.146903 0.940623 0.30602 0.146903 0.940623 0.30602 0.146903 0.940623 
0.629397 -0.0478158 0.775612 0.629397 -0.0478158 0.775612 0.629397 -0.0478158 0.775612 
0.865576 -0.284038 0.412432 0.865576 -0.284038 0.412432 0.865576 -0.284038 0.412432 
0.913099 -0.407191 -0.0211059 0.913099 -0.407191 -0.0211059 0.913099 -0.407191 -0.0211059 
-0.544816 0.418051 -0.726918 -0.544816 0.418051 -0.726918 -0.544816 0.418051 -0.726918 
-0.578383 0.688887 -0.43693 -0.578383 0.688887 -0.43693 -0.578383 0.688887 -0.43693 
-0.37054 0.701932 0.608269 -0.37054 0.701932 0.608269 -0.37054 0.701932 0.608269 
-0.327697 0.545335 0.771508 -0.327697 0.545335 0.771508 -0.327697 0.545335 0.771508 
-0.413982 0.601335 0.683385 -0.413982 0.601335 0.683385 -0.413982 0.601335 0.683385 
0.0290511 0.00496013 -0.999566 0.0290511 0.00496013 -0.999566 0.0290511 0.00496013 -0.999566 
-0.192985 0.322689 0.926622 -0.192985 0.322689 0.926622 -0.192985 0.322689 0.926622 
0.144906 -0.174257 -0.97398 0.144906 -0.174257 -0.97398 0.144906 -0.174257 -0.97398 
0.168579 -0.189895 -0.967223 0.168579 -0.189895 -0.967223 0.168579 -0.189895 -0.967223 
0.520381 0.131767 0.843707 0.520381 0.131767 0.843707 0.520381 0.131767 0.843707 
0.765705 -0.341462 0.545069 0.765705 -0.341462 0.545069 0.765705 -0.341462 0.545069 
-0.550997 0.737351 -0.390789 -0.550997 0.737351 -0.390789 -0.550997 0.737351 -0.390789 
-0.454624 0.877574 0.152252 -0.454624 0.877574 0.152252 -0.454624 0.877574 0.152252 
-0.460396 0.855966 0.235282 -0.460396 0.855966 0.235282 -0.460396 0.855966 0.235282 
-0.37656 0.7001 0.606681 -0.37656 0.7001 0.606681 -0.37656 0.7001 0.606681 
-0.440777 0.733516 0.517368 -0.440777 0.733516 0.517368 -0.440777 0.733516 0.517368 
-0.062128 0.102639 -0.992777 -0.062128 0.102639 -0.992777 -0.062128 0.102639 -0.992777 
-0.00946409 0.328856 0.944333 -0.00946409 0.328856 0.944333 -0.00946409 0.328856 0.944333 
0.143701 0.218346 0.965233 0.143701 0.218346 0.965233 0.143701 0.218346 0.965233 
0.532901 -0.467584 -0.705253 0.532901 -0.467584 -0.705253 0.532901 -0.467584 -0.705253 
0.523205 -0.081657 0.848286 0.523205 -0.081657 0.848286 0.523205 -0.081657 0.848286 
0.850127 -0.465209 -0.246707 0.850127 -0.465209 -0.246707 0.850127 -0.465209 -0.246707 
0.851844 -0.466148 0.238888 0.851844 -0.466148 0.238888 0.851844 -0.466148 0.238888 
-0.266796 0.481011 0.835134 -0.266796 0.481011 0.835134 -0.266796 0.481011 0.835134 
0.026069 0.0125953 -0.999581 0.026069 0.0125953 -0.999581 0.026069 0.0125953 -0.999581 
0.280063 -0.436207 -0.855154 0.280063 -0.436207 -0.855154 0.280063 -0.436207 -0.855154 
0.195377 0.242557 0.95026 0.195377 0.242557 0.95026 0.195377 0.242557 0.95026 
0.377298 -0.387651 -0.841054 0.377298 -0.387651 -0.841054 0.377298 -0.387651 -0.841054 
0.495246 -0.0215209 0.868486 0.495246 -0.0215209 0.868486 0.495246 -0.0215209 0.868486 
0.653967 -0.496678 -0.570646 0.653967 -0.496678 -0.570646 0.653967 -0.496678 -0.570646 
0.784707 -0.327169 0.526494 0.784707 -0.327169 0.526494 0.784707 -0.327169 0.526494 
0.663154 -0.27649 0.695543 0.663154 -0.27649 0.695543 0.663154 -0.27649 0.695543 
0.790996 -0.239322 0.563072 0.790996 -0.239322 0.563072 0.790996 -0.239322 0.563072 
0.806157 -0.527002 -0.269034 0.806157 -0.527002 -0.269034 0.806157 -0.527002 -0.269034 
0.779298 -0.608999 0.147701 0.779298 -0.608999 0.147701 0.779298 -0.608999 0.147701 
-0.445262 0.791155 -0.419304 -0.445262 0.791155 -0.419304 -0.445262 0.791155 -0.419304 
-0.542774 0.794613 0.272004 -0.542774 0.794613 0.272004 -0.542774 0.794613 0.272004 
-0.0690406 0.497347 -0.8648 -0.0690406 0.497347 -0.8648 -0.0690406 0.497347 -0.8648 
0.0481474 0.423047 -0.904828 0.0481474 0.423047 -0.904828 0.0481474 0.423047 -0.904828 
-0.364083 0.488496 -0.792979 -0.364083 0.488496 -0.792979 -0.364083 0.488496 -0.792979 
-0.41324 0.612252 0.674077 -0.41324 0.612252 0.674077 -0.41324 0.612252 0.674077 
-0.0736927 0.122386 -0.989743 -0.0736927 0.122386 -0.989743 -0.0736927 0.122386 -0.989743 
-0.379059 0.607481 0.698056 -0.379059 0.607481 0.698056 -0.379059 0.607481 0.698056 